# alphaMean.air  FACE_DATA 80
#  x  y  z  alphaMean.air
0.0025 0.63 0.0025 0.0209334
0.0075 0.63 0.0025 0.019096
0.0125 0.63 0.0025 0.0170527
0.0175 0.63 0.0025 0.0168678
0.0225 0.63 0.0025 0.0171268
0.0275 0.63 0.0025 0.0174822
0.0325 0.63 0.0025 0.0178539
0.0375 0.63 0.0025 0.0182086
0.0425 0.63 0.0025 0.0184878
0.0475 0.63 0.0025 0.018767
0.0525 0.63 0.0025 0.0189071
0.0575 0.63 0.0025 0.018962
0.0625 0.63 0.0025 0.0188814
0.0675 0.63 0.0025 0.0186848
0.0725 0.63 0.0025 0.0184031
0.0775 0.63 0.0025 0.0180592
0.0825 0.63 0.0025 0.0177258
0.0875 0.63 0.0025 0.0172763
0.0925 0.63 0.0025 0.0190283
0.0975 0.63 0.0025 0.0207119
0.0025 0.63 0.0075 0.0286974
0.0075 0.63 0.0075 0.0560925
0.0125 0.63 0.0075 0.0511308
0.0175 0.63 0.0075 0.0478662
0.0225 0.63 0.0075 0.0475463
0.0275 0.63 0.0075 0.0465792
0.0325 0.63 0.0075 0.0459036
0.0375 0.63 0.0075 0.0452502
0.0425 0.63 0.0075 0.0448741
0.0475 0.63 0.0075 0.0447533
0.0525 0.63 0.0075 0.0448398
0.0575 0.63 0.0075 0.0449698
0.0625 0.63 0.0075 0.0450188
0.0675 0.63 0.0075 0.0451079
0.0725 0.63 0.0075 0.0452063
0.0775 0.63 0.0075 0.0456157
0.0825 0.63 0.0075 0.0452919
0.0875 0.63 0.0075 0.0468253
0.0925 0.63 0.0075 0.0510116
0.0975 0.63 0.0075 0.0310282
0.0025 0.63 0.0125 0.0286047
0.0075 0.63 0.0125 0.0552436
0.0125 0.63 0.0125 0.0503831
0.0175 0.63 0.0125 0.0472423
0.0225 0.63 0.0125 0.0470362
0.0275 0.63 0.0125 0.0460762
0.0325 0.63 0.0125 0.0454705
0.0375 0.63 0.0125 0.044892
0.0425 0.63 0.0125 0.0444931
0.0475 0.63 0.0125 0.0443069
0.0525 0.63 0.0125 0.0444655
0.0575 0.63 0.0125 0.0448678
0.0625 0.63 0.0125 0.0450787
0.0675 0.63 0.0125 0.0451871
0.0725 0.63 0.0125 0.0451989
0.0775 0.63 0.0125 0.0455133
0.0825 0.63 0.0125 0.0451072
0.0875 0.63 0.0125 0.0466017
0.0925 0.63 0.0125 0.0508178
0.0975 0.63 0.0125 0.0309247
0.0025 0.63 0.0175 0.0211735
0.0075 0.63 0.0175 0.0203548
0.0125 0.63 0.0175 0.018156
0.0175 0.63 0.0175 0.0174154
0.0225 0.63 0.0175 0.0176357
0.0275 0.63 0.0175 0.0177689
0.0325 0.63 0.0175 0.0179533
0.0375 0.63 0.0175 0.0182024
0.0425 0.63 0.0175 0.0183806
0.0475 0.63 0.0175 0.0184754
0.0525 0.63 0.0175 0.018443
0.0575 0.63 0.0175 0.0184089
0.0625 0.63 0.0175 0.0186001
0.0675 0.63 0.0175 0.0187693
0.0725 0.63 0.0175 0.0186905
0.0775 0.63 0.0175 0.0184287
0.0825 0.63 0.0175 0.0180161
0.0875 0.63 0.0175 0.0173903
0.0925 0.63 0.0175 0.0192924
0.0975 0.63 0.0175 0.0206292
