# alphaMean.water  FACE_DATA 80
#  x  y  z  alphaMean.water
0.0025 0.63 0.0025 0.979067
0.0075 0.63 0.0025 0.980904
0.0125 0.63 0.0025 0.982947
0.0175 0.63 0.0025 0.983132
0.0225 0.63 0.0025 0.982873
0.0275 0.63 0.0025 0.982518
0.0325 0.63 0.0025 0.982146
0.0375 0.63 0.0025 0.981791
0.0425 0.63 0.0025 0.981512
0.0475 0.63 0.0025 0.981233
0.0525 0.63 0.0025 0.981093
0.0575 0.63 0.0025 0.981038
0.0625 0.63 0.0025 0.981119
0.0675 0.63 0.0025 0.981315
0.0725 0.63 0.0025 0.981597
0.0775 0.63 0.0025 0.981941
0.0825 0.63 0.0025 0.982274
0.0875 0.63 0.0025 0.982724
0.0925 0.63 0.0025 0.980972
0.0975 0.63 0.0025 0.979288
0.0025 0.63 0.0075 0.971303
0.0075 0.63 0.0075 0.943908
0.0125 0.63 0.0075 0.948869
0.0175 0.63 0.0075 0.952134
0.0225 0.63 0.0075 0.952454
0.0275 0.63 0.0075 0.953421
0.0325 0.63 0.0075 0.954096
0.0375 0.63 0.0075 0.95475
0.0425 0.63 0.0075 0.955126
0.0475 0.63 0.0075 0.955247
0.0525 0.63 0.0075 0.95516
0.0575 0.63 0.0075 0.95503
0.0625 0.63 0.0075 0.954981
0.0675 0.63 0.0075 0.954892
0.0725 0.63 0.0075 0.954794
0.0775 0.63 0.0075 0.954384
0.0825 0.63 0.0075 0.954708
0.0875 0.63 0.0075 0.953175
0.0925 0.63 0.0075 0.948988
0.0975 0.63 0.0075 0.968972
0.0025 0.63 0.0125 0.971395
0.0075 0.63 0.0125 0.944756
0.0125 0.63 0.0125 0.949617
0.0175 0.63 0.0125 0.952758
0.0225 0.63 0.0125 0.952964
0.0275 0.63 0.0125 0.953924
0.0325 0.63 0.0125 0.954529
0.0375 0.63 0.0125 0.955108
0.0425 0.63 0.0125 0.955507
0.0475 0.63 0.0125 0.955693
0.0525 0.63 0.0125 0.955535
0.0575 0.63 0.0125 0.955132
0.0625 0.63 0.0125 0.954921
0.0675 0.63 0.0125 0.954813
0.0725 0.63 0.0125 0.954801
0.0775 0.63 0.0125 0.954487
0.0825 0.63 0.0125 0.954893
0.0875 0.63 0.0125 0.953398
0.0925 0.63 0.0125 0.949182
0.0975 0.63 0.0125 0.969075
0.0025 0.63 0.0175 0.978827
0.0075 0.63 0.0175 0.979645
0.0125 0.63 0.0175 0.981844
0.0175 0.63 0.0175 0.982585
0.0225 0.63 0.0175 0.982364
0.0275 0.63 0.0175 0.982231
0.0325 0.63 0.0175 0.982047
0.0375 0.63 0.0175 0.981798
0.0425 0.63 0.0175 0.981619
0.0475 0.63 0.0175 0.981525
0.0525 0.63 0.0175 0.981557
0.0575 0.63 0.0175 0.981591
0.0625 0.63 0.0175 0.9814
0.0675 0.63 0.0175 0.981231
0.0725 0.63 0.0175 0.981309
0.0775 0.63 0.0175 0.981571
0.0825 0.63 0.0175 0.981984
0.0875 0.63 0.0175 0.98261
0.0925 0.63 0.0175 0.980708
0.0975 0.63 0.0175 0.979371
