# alphaMean.water  FACE_DATA 80
#  x  y  z  alphaMean.water
0.0025 0.08 0.0025 0.992029
0.0075 0.08 0.0025 0.993941
0.0125 0.08 0.0025 0.994944
0.0175 0.08 0.0025 0.991248
0.0225 0.08 0.0025 0.983503
0.0275 0.08 0.0025 0.976382
0.0325 0.08 0.0025 0.971003
0.0375 0.08 0.0025 0.973615
0.0425 0.08 0.0025 0.977533
0.0475 0.08 0.0025 0.979203
0.0525 0.08 0.0025 0.979198
0.0575 0.08 0.0025 0.977426
0.0625 0.08 0.0025 0.973211
0.0675 0.08 0.0025 0.96951
0.0725 0.08 0.0025 0.974619
0.0775 0.08 0.0025 0.981469
0.0825 0.08 0.0025 0.989678
0.0875 0.08 0.0025 0.993732
0.0925 0.08 0.0025 0.992667
0.0975 0.08 0.0025 0.99076
0.0025 0.08 0.0075 0.990453
0.0075 0.08 0.0075 0.987769
0.0125 0.08 0.0075 0.990815
0.0175 0.08 0.0075 0.98831
0.0225 0.08 0.0075 0.979805
0.0275 0.08 0.0075 0.97105
0.0325 0.08 0.0075 0.964052
0.0375 0.08 0.0075 0.961694
0.0425 0.08 0.0075 0.965108
0.0475 0.08 0.0075 0.967718
0.0525 0.08 0.0075 0.96766
0.0575 0.08 0.0075 0.964974
0.0625 0.08 0.0075 0.96122
0.0675 0.08 0.0075 0.962674
0.0725 0.08 0.0075 0.969525
0.0775 0.08 0.0075 0.978195
0.0825 0.08 0.0075 0.986979
0.0875 0.08 0.0075 0.989523
0.0925 0.08 0.0075 0.986275
0.0975 0.08 0.0075 0.988981
0.0025 0.08 0.0125 0.990401
0.0075 0.08 0.0125 0.987866
0.0125 0.08 0.0125 0.990604
0.0175 0.08 0.0125 0.987912
0.0225 0.08 0.0125 0.979236
0.0275 0.08 0.0125 0.970595
0.0325 0.08 0.0125 0.964003
0.0375 0.08 0.0125 0.962046
0.0425 0.08 0.0125 0.964869
0.0475 0.08 0.0125 0.967177
0.0525 0.08 0.0125 0.967297
0.0575 0.08 0.0125 0.964887
0.0625 0.08 0.0125 0.961419
0.0675 0.08 0.0125 0.96284
0.0725 0.08 0.0125 0.96983
0.0775 0.08 0.0125 0.978556
0.0825 0.08 0.0125 0.987089
0.0875 0.08 0.0125 0.989635
0.0925 0.08 0.0125 0.986378
0.0975 0.08 0.0125 0.989014
0.0025 0.08 0.0175 0.991848
0.0075 0.08 0.0175 0.993708
0.0125 0.08 0.0175 0.994778
0.0175 0.08 0.0175 0.99103
0.0225 0.08 0.0175 0.982839
0.0275 0.08 0.0175 0.975472
0.0325 0.08 0.0175 0.97038
0.0375 0.08 0.0175 0.972432
0.0425 0.08 0.0175 0.97604
0.0475 0.08 0.0175 0.977996
0.0525 0.08 0.0175 0.978536
0.0575 0.08 0.0175 0.977109
0.0625 0.08 0.0175 0.973308
0.0675 0.08 0.0175 0.970351
0.0725 0.08 0.0175 0.975796
0.0775 0.08 0.0175 0.982732
0.0825 0.08 0.0175 0.990249
0.0875 0.08 0.0175 0.994187
0.0925 0.08 0.0175 0.993448
0.0975 0.08 0.0175 0.990871
