# alphaMean.air  FACE_DATA 80
#  x  y  z  alphaMean.air
0.0025 0.08 0.0025 0.00797147
0.0075 0.08 0.0025 0.0060592
0.0125 0.08 0.0025 0.00505576
0.0175 0.08 0.0025 0.00875207
0.0225 0.08 0.0025 0.0164966
0.0275 0.08 0.0025 0.0236178
0.0325 0.08 0.0025 0.0289965
0.0375 0.08 0.0025 0.0263851
0.0425 0.08 0.0025 0.0224668
0.0475 0.08 0.0025 0.0207969
0.0525 0.08 0.0025 0.0208024
0.0575 0.08 0.0025 0.0225744
0.0625 0.08 0.0025 0.0267887
0.0675 0.08 0.0025 0.0304897
0.0725 0.08 0.0025 0.0253811
0.0775 0.08 0.0025 0.0185313
0.0825 0.08 0.0025 0.0103224
0.0875 0.08 0.0025 0.00626784
0.0925 0.08 0.0025 0.00733279
0.0975 0.08 0.0025 0.00924044
0.0025 0.08 0.0075 0.00954692
0.0075 0.08 0.0075 0.012231
0.0125 0.08 0.0075 0.00918472
0.0175 0.08 0.0075 0.0116904
0.0225 0.08 0.0075 0.0201954
0.0275 0.08 0.0075 0.0289504
0.0325 0.08 0.0075 0.0359477
0.0375 0.08 0.0075 0.0383065
0.0425 0.08 0.0075 0.0348924
0.0475 0.08 0.0075 0.032282
0.0525 0.08 0.0075 0.0323397
0.0575 0.08 0.0075 0.0350255
0.0625 0.08 0.0075 0.0387795
0.0675 0.08 0.0075 0.0373259
0.0725 0.08 0.0075 0.0304748
0.0775 0.08 0.0075 0.0218053
0.0825 0.08 0.0075 0.0130207
0.0875 0.08 0.0075 0.010477
0.0925 0.08 0.0075 0.0137253
0.0975 0.08 0.0075 0.0110191
0.0025 0.08 0.0125 0.00959891
0.0075 0.08 0.0125 0.0121345
0.0125 0.08 0.0125 0.00939572
0.0175 0.08 0.0125 0.0120882
0.0225 0.08 0.0125 0.0207639
0.0275 0.08 0.0125 0.0294052
0.0325 0.08 0.0125 0.0359974
0.0375 0.08 0.0125 0.0379541
0.0425 0.08 0.0125 0.0351314
0.0475 0.08 0.0125 0.0328229
0.0525 0.08 0.0125 0.0327025
0.0575 0.08 0.0125 0.0351128
0.0625 0.08 0.0125 0.0385813
0.0675 0.08 0.0125 0.0371604
0.0725 0.08 0.0125 0.0301697
0.0775 0.08 0.0125 0.0214442
0.0825 0.08 0.0125 0.0129111
0.0875 0.08 0.0125 0.0103653
0.0925 0.08 0.0125 0.0136224
0.0975 0.08 0.0125 0.0109855
0.0025 0.08 0.0175 0.00815212
0.0075 0.08 0.0175 0.00629204
0.0125 0.08 0.0175 0.0052218
0.0175 0.08 0.0175 0.00896959
0.0225 0.08 0.0175 0.0171612
0.0275 0.08 0.0175 0.0245279
0.0325 0.08 0.0175 0.0296198
0.0375 0.08 0.0175 0.0275676
0.0425 0.08 0.0175 0.0239603
0.0475 0.08 0.0175 0.0220036
0.0525 0.08 0.0175 0.0214642
0.0575 0.08 0.0175 0.0228915
0.0625 0.08 0.0175 0.0266922
0.0675 0.08 0.0175 0.0296487
0.0725 0.08 0.0175 0.0242042
0.0775 0.08 0.0175 0.0172676
0.0825 0.08 0.0175 0.00975053
0.0875 0.08 0.0175 0.00581285
0.0925 0.08 0.0175 0.00655154
0.0975 0.08 0.0175 0.00912904
