# pMean  FACE_DATA 80
#  x  y  z  pMean
0.0025 0.08 0.0025 108670
0.0075 0.08 0.0025 108670
0.0125 0.08 0.0025 108669
0.0175 0.08 0.0025 108668
0.0225 0.08 0.0025 108667
0.0275 0.08 0.0025 108666
0.0325 0.08 0.0025 108665
0.0375 0.08 0.0025 108664
0.0425 0.08 0.0025 108663
0.0475 0.08 0.0025 108663
0.0525 0.08 0.0025 108663
0.0575 0.08 0.0025 108663
0.0625 0.08 0.0025 108664
0.0675 0.08 0.0025 108665
0.0725 0.08 0.0025 108666
0.0775 0.08 0.0025 108667
0.0825 0.08 0.0025 108668
0.0875 0.08 0.0025 108669
0.0925 0.08 0.0025 108669
0.0975 0.08 0.0025 108670
0.0025 0.08 0.0075 108670
0.0075 0.08 0.0075 108669
0.0125 0.08 0.0075 108669
0.0175 0.08 0.0075 108668
0.0225 0.08 0.0075 108667
0.0275 0.08 0.0075 108666
0.0325 0.08 0.0075 108665
0.0375 0.08 0.0075 108664
0.0425 0.08 0.0075 108663
0.0475 0.08 0.0075 108663
0.0525 0.08 0.0075 108663
0.0575 0.08 0.0075 108663
0.0625 0.08 0.0075 108664
0.0675 0.08 0.0075 108665
0.0725 0.08 0.0075 108666
0.0775 0.08 0.0075 108667
0.0825 0.08 0.0075 108668
0.0875 0.08 0.0075 108669
0.0925 0.08 0.0075 108669
0.0975 0.08 0.0075 108669
0.0025 0.08 0.0125 108670
0.0075 0.08 0.0125 108670
0.0125 0.08 0.0125 108669
0.0175 0.08 0.0125 108668
0.0225 0.08 0.0125 108667
0.0275 0.08 0.0125 108666
0.0325 0.08 0.0125 108665
0.0375 0.08 0.0125 108664
0.0425 0.08 0.0125 108663
0.0475 0.08 0.0125 108663
0.0525 0.08 0.0125 108663
0.0575 0.08 0.0125 108663
0.0625 0.08 0.0125 108664
0.0675 0.08 0.0125 108665
0.0725 0.08 0.0125 108666
0.0775 0.08 0.0125 108667
0.0825 0.08 0.0125 108668
0.0875 0.08 0.0125 108669
0.0925 0.08 0.0125 108669
0.0975 0.08 0.0125 108669
0.0025 0.08 0.0175 108670
0.0075 0.08 0.0175 108670
0.0125 0.08 0.0175 108669
0.0175 0.08 0.0175 108669
0.0225 0.08 0.0175 108667
0.0275 0.08 0.0175 108666
0.0325 0.08 0.0175 108665
0.0375 0.08 0.0175 108664
0.0425 0.08 0.0175 108663
0.0475 0.08 0.0175 108663
0.0525 0.08 0.0175 108663
0.0575 0.08 0.0175 108663
0.0625 0.08 0.0175 108664
0.0675 0.08 0.0175 108665
0.0725 0.08 0.0175 108666
0.0775 0.08 0.0175 108667
0.0825 0.08 0.0175 108668
0.0875 0.08 0.0175 108669
0.0925 0.08 0.0175 108669
0.0975 0.08 0.0175 108670
