# UMean.air  FACE_DATA 80
#  x  y  z  UMean.air_x  UMean.air_y  UMean.air_z  
0.0025 0.08 0.0025 -0.00284324 0.0836221 0.00939208
0.0075 0.08 0.0025 -0.00493153 0.128087 0.00657168
0.0125 0.08 0.0025 -0.00313191 0.171163 0.00385303
0.0175 0.08 0.0025 0.000618103 0.211773 0.00195709
0.0225 0.08 0.0025 0.0043874 0.245448 0.000753147
0.0275 0.08 0.0025 0.00687519 0.267761 -0.000768118
0.0325 0.08 0.0025 0.00830719 0.273755 -0.00283364
0.0375 0.08 0.0025 0.00798257 0.272459 -0.00241976
0.0425 0.08 0.0025 0.0055803 0.272287 -0.000146492
0.0475 0.08 0.0025 0.00345355 0.273949 0.00147063
0.0525 0.08 0.0025 0.00243208 0.27467 0.00117467
0.0575 0.08 0.0025 2.1418e-05 0.27446 -0.000552963
0.0625 0.08 0.0025 -0.00414064 0.276566 -0.00238669
0.0675 0.08 0.0025 -0.00573968 0.280604 -0.00241165
0.0725 0.08 0.0025 -0.00437591 0.276599 -0.000337084
0.0775 0.08 0.0025 -0.00137543 0.254007 0.000982456
0.0825 0.08 0.0025 0.00269997 0.218591 0.00256039
0.0875 0.08 0.0025 0.0056803 0.176686 0.00475532
0.0925 0.08 0.0025 0.00689362 0.130968 0.00719718
0.0975 0.08 0.0025 0.00372158 0.0840863 0.00885674
0.0025 0.08 0.0075 0.00662968 0.0954648 0.00957538
0.0075 0.08 0.0075 0.00502693 0.13446 0.00667679
0.0125 0.08 0.0075 -0.00166095 0.181927 0.00454465
0.0175 0.08 0.0075 -0.000630017 0.230276 0.0029651
0.0225 0.08 0.0075 4.05802e-06 0.269298 0.00197338
0.0275 0.08 0.0075 0.000860349 0.294816 0.00035479
0.0325 0.08 0.0075 0.002786 0.305786 -0.00195002
0.0375 0.08 0.0075 0.0045155 0.30668 -0.00108192
0.0425 0.08 0.0075 0.00443522 0.304262 0.00143822
0.0475 0.08 0.0075 0.00342251 0.302863 0.00287293
0.0525 0.08 0.0075 0.00190417 0.303553 0.00243973
0.0575 0.08 0.0075 0.00010235 0.306434 0.000992162
0.0625 0.08 0.0075 -0.0015454 0.311049 -0.000885504
0.0675 0.08 0.0075 -0.000952574 0.312569 -0.000975698
0.0725 0.08 0.0075 0.000267081 0.302879 0.00152299
0.0775 0.08 0.0075 0.00177791 0.276466 0.00318444
0.0825 0.08 0.0075 0.00381436 0.236498 0.00480999
0.0875 0.08 0.0075 0.00394588 0.188221 0.00675636
0.0925 0.08 0.0075 -0.00369853 0.140712 0.00831143
0.0975 0.08 0.0075 -0.00639154 0.0991447 0.00892603
0.0025 0.08 0.0125 0.00776577 0.0878159 -0.00702883
0.0075 0.08 0.0125 0.00598482 0.129835 -0.0109286
0.0125 0.08 0.0125 -0.000912938 0.180599 -0.0090297
0.0175 0.08 0.0125 -0.000324668 0.231781 -0.00631015
0.0225 0.08 0.0125 0.000326187 0.272738 -0.00455367
0.0275 0.08 0.0125 0.000680437 0.299795 -0.00301767
0.0325 0.08 0.0125 0.00266508 0.311547 -0.000749718
0.0375 0.08 0.0125 0.00470556 0.31176 0.000288608
0.0425 0.08 0.0125 0.00442073 0.308047 -3.78016e-07
0.0475 0.08 0.0125 0.00287153 0.305408 -0.00024351
0.0525 0.08 0.0125 0.000974929 0.305835 -0.000514157
0.0575 0.08 0.0125 -0.000819921 0.309212 -9.0919e-05
0.0625 0.08 0.0125 -0.00206921 0.31414 0.00101198
0.0675 0.08 0.0125 -0.00119429 0.315455 0.00118918
0.0725 0.08 0.0125 0.000323419 0.304789 -0.00089813
0.0775 0.08 0.0125 0.00188459 0.277063 -0.00256841
0.0825 0.08 0.0125 0.00346126 0.235779 -0.00453608
0.0875 0.08 0.0125 0.00329478 0.185821 -0.0071141
0.0925 0.08 0.0125 -0.00489301 0.136421 -0.00964565
0.0975 0.08 0.0125 -0.00794413 0.094811 -0.00749004
0.0025 0.08 0.0175 -0.000633129 0.0669289 -0.00851078
0.0075 0.08 0.0175 -0.00360699 0.116616 -0.00852674
0.0125 0.08 0.0175 -0.00299115 0.168818 -0.00535286
0.0175 0.08 0.0175 0.00018597 0.215997 -0.00278952
0.0225 0.08 0.0175 0.00384732 0.255073 -0.00147576
0.0275 0.08 0.0175 0.00614797 0.281867 -0.000337275
0.0325 0.08 0.0175 0.00770243 0.291686 0.00138374
0.0375 0.08 0.0175 0.00759869 0.289442 0.00165989
0.0425 0.08 0.0175 0.00561168 0.285749 0.000701801
0.0475 0.08 0.0175 0.00282189 0.283175 3.79643e-05
0.0525 0.08 0.0175 0.000665189 0.282364 -6.22435e-05
0.0575 0.08 0.0175 -0.00201466 0.282918 0.000799931
0.0625 0.08 0.0175 -0.00531963 0.285097 0.00228776
0.0675 0.08 0.0175 -0.00601358 0.287564 0.00261376
0.0725 0.08 0.0175 -0.00429458 0.280536 0.000949873
0.0775 0.08 0.0175 -0.00123854 0.255569 -0.000271453
0.0825 0.08 0.0175 0.00236182 0.217691 -0.00201908
0.0875 0.08 0.0175 0.00453722 0.171542 -0.00457013
0.0925 0.08 0.0175 0.00458009 0.120476 -0.00765383
0.0975 0.08 0.0175 0.000634892 0.0732033 -0.00837455
