# UMean.water  FACE_DATA 80
#  x  y  z  UMean.water_x  UMean.water_y  UMean.water_z  
0.0025 0.63 0.0025 0.000328106 -0.117909 0.000132272
0.0075 0.63 0.0025 0.00110698 -0.0886377 -0.000358046
0.0125 0.63 0.0025 0.00277529 -0.0784725 -0.000650981
0.0175 0.63 0.0025 0.00410997 -0.0732996 -0.000482344
0.0225 0.63 0.0025 0.00557653 -0.0687213 -0.000458839
0.0275 0.63 0.0025 0.00670608 -0.0655218 -0.000397719
0.0325 0.63 0.0025 0.00777421 -0.0625135 -0.00029376
0.0375 0.63 0.0025 0.00856533 -0.0593323 -0.000155584
0.0425 0.63 0.0025 0.0090997 -0.0560362 -8.48195e-06
0.0475 0.63 0.0025 0.00952531 -0.0520568 1.6488e-05
0.0525 0.63 0.0025 0.00964691 -0.0478332 -2.97304e-05
0.0575 0.63 0.0025 0.00916686 -0.0437791 -0.000137559
0.0625 0.63 0.0025 0.00787521 -0.0406072 -3.46642e-05
0.0675 0.63 0.0025 0.00668296 -0.0375252 -6.96301e-05
0.0725 0.63 0.0025 0.0058305 -0.0339953 -0.000129625
0.0775 0.63 0.0025 0.00488148 -0.0306687 -0.000175654
0.0825 0.63 0.0025 0.00393304 -0.0283531 -0.000132781
0.0875 0.63 0.0025 0.0028725 -0.02766 -0.000197823
0.0925 0.63 0.0025 0.00182237 -0.0277153 -9.5324e-05
0.0975 0.63 0.0025 0.000692972 -0.0496449 -0.000386002
0.0025 0.63 0.0075 0.000623333 -0.0285186 0.000360853
0.0075 0.63 0.0075 0.00334634 0.0357482 0.000244906
0.0125 0.63 0.0075 0.00481702 0.0470529 0.000127872
0.0175 0.63 0.0075 0.00572048 0.0477007 0.000185912
0.0225 0.63 0.0075 0.00667395 0.048458 0.000203652
0.0275 0.63 0.0075 0.00743091 0.0484138 0.000211236
0.0325 0.63 0.0075 0.0080722 0.0486856 0.000278059
0.0375 0.63 0.0075 0.00844302 0.0494889 0.00043841
0.0425 0.63 0.0075 0.0086902 0.0515126 0.000632323
0.0475 0.63 0.0075 0.00887303 0.0549246 0.000748213
0.0525 0.63 0.0075 0.00888596 0.0590027 0.000892106
0.0575 0.63 0.0075 0.00847765 0.0630525 0.00110559
0.0625 0.63 0.0075 0.00761081 0.0667817 0.00120499
0.0675 0.63 0.0075 0.00675534 0.070837 0.00108587
0.0725 0.63 0.0075 0.00582439 0.0749605 0.000874051
0.0775 0.63 0.0075 0.00483347 0.0789434 0.000749122
0.0825 0.63 0.0075 0.00381239 0.0817794 0.000669142
0.0875 0.63 0.0075 0.00293265 0.0863148 0.00063971
0.0925 0.63 0.0075 0.00217927 0.0868504 0.000540513
0.0975 0.63 0.0075 0.00152427 0.0379761 0.00053153
0.0025 0.63 0.0125 0.000415637 -0.0274026 -0.000545763
0.0075 0.63 0.0125 0.00309982 0.0362534 -0.000508631
0.0125 0.63 0.0125 0.00460276 0.0473764 -0.000466691
0.0175 0.63 0.0125 0.00547781 0.047754 -0.000677138
0.0225 0.63 0.0125 0.00638595 0.0479456 -0.000915486
0.0275 0.63 0.0125 0.0072043 0.0474503 -0.00114175
0.0325 0.63 0.0125 0.00801502 0.0477203 -0.00122792
0.0375 0.63 0.0125 0.00853599 0.0487312 -0.00120188
0.0425 0.63 0.0125 0.00883069 0.0508915 -0.00103868
0.0475 0.63 0.0125 0.00889424 0.0543829 -0.000872742
0.0525 0.63 0.0125 0.00881204 0.0588938 -0.000675567
0.0575 0.63 0.0125 0.00847495 0.0634735 -0.000450298
0.0625 0.63 0.0125 0.00779112 0.067086 -0.000247635
0.0675 0.63 0.0125 0.0068999 0.0703448 -0.000251398
0.0725 0.63 0.0125 0.0057939 0.0737232 -0.000350213
0.0775 0.63 0.0125 0.00469058 0.0774283 -0.000412458
0.0825 0.63 0.0125 0.00362844 0.0802805 -0.000451202
0.0875 0.63 0.0125 0.00267465 0.0850986 -0.000477009
0.0925 0.63 0.0125 0.00197232 0.0862798 -0.000591079
0.0975 0.63 0.0125 0.00143404 0.0371322 -0.000638156
0.0025 0.63 0.0175 0.000279283 -0.113604 -0.000169114
0.0075 0.63 0.0175 0.00105305 -0.0817344 0.000162588
0.0125 0.63 0.0175 0.00294172 -0.0709482 0.000484521
0.0175 0.63 0.0175 0.00429127 -0.0680111 0.000319195
0.0225 0.63 0.0175 0.0057943 -0.0660186 8.00127e-05
0.0275 0.63 0.0175 0.00678988 -0.0647696 -0.000170672
0.0325 0.63 0.0175 0.00763608 -0.0623942 -0.000199753
0.0375 0.63 0.0175 0.0083063 -0.058859 -0.000119685
0.0425 0.63 0.0175 0.00877441 -0.0546646 1.1207e-05
0.0475 0.63 0.0175 0.0088763 -0.0505756 0.000138754
0.0525 0.63 0.0175 0.00863829 -0.0470385 0.000306463
0.0575 0.63 0.0175 0.00840683 -0.043583 0.000522397
0.0625 0.63 0.0175 0.00806349 -0.0401143 0.000613834
0.0675 0.63 0.0175 0.00722117 -0.0367299 0.000533999
0.0725 0.63 0.0175 0.00589118 -0.0337429 0.000383795
0.0775 0.63 0.0175 0.00445246 -0.0306298 0.000296597
0.0825 0.63 0.0175 0.00317656 -0.0281308 0.000204463
0.0875 0.63 0.0175 0.0020535 -0.0267106 0.000293074
0.0925 0.63 0.0175 0.00145093 -0.0257949 0.000117207
0.0975 0.63 0.0175 0.000672148 -0.0496811 0.000409048
