# UMean.water  FACE_DATA 80
#  x  y  z  UMean.water_x  UMean.water_y  UMean.water_z  
0.0025 0.08 0.0025 -7.61726e-05 -0.151095 0.00422579
0.0075 0.08 0.0025 0.00168475 -0.106159 0.000370413
0.0125 0.08 0.0025 0.00405912 -0.0621017 -0.00128646
0.0175 0.08 0.0025 0.00563131 -0.021008 -0.00191054
0.0225 0.08 0.0025 0.00664663 0.0129696 -0.00192344
0.0275 0.08 0.0025 0.00659888 0.0359182 -0.00171866
0.0325 0.08 0.0025 0.00618238 0.042901 -0.00151224
0.0375 0.08 0.0025 0.00543893 0.0412772 -0.000983168
0.0425 0.08 0.0025 0.00418578 0.0406615 0.000102159
0.0475 0.08 0.0025 0.00319211 0.0421514 0.00104084
0.0525 0.08 0.0025 0.00315704 0.0428825 0.000796252
0.0575 0.08 0.0025 0.00178739 0.0432537 -0.000174967
0.0625 0.08 0.0025 -0.000717955 0.0457764 -0.000866653
0.0675 0.08 0.0025 -0.00248942 0.0499375 -0.00134258
0.0725 0.08 0.0025 -0.00305284 0.0453869 -0.00169313
0.0775 0.08 0.0025 -0.00304194 0.0224594 -0.00185367
0.0825 0.08 0.0025 -0.0027172 -0.0132251 -0.00142973
0.0875 0.08 0.0025 -0.00247996 -0.0555353 -0.00036811
0.0925 0.08 0.0025 -0.00108019 -0.101618 0.00097136
0.0975 0.08 0.0025 0.000182297 -0.148527 0.00406552
0.0025 0.08 0.0075 0.00483946 -0.138078 0.00423421
0.0075 0.08 0.0075 0.0101665 -0.0973867 0.000550611
0.0125 0.08 0.0075 0.0106506 -0.0486585 -0.000427805
0.0175 0.08 0.0075 0.00902255 -0.000212114 -0.000530801
0.0225 0.08 0.0075 0.00740648 0.0383738 -0.000272312
0.0275 0.08 0.0075 0.0066581 0.0640575 -0.000210706
0.0325 0.08 0.0075 0.00649934 0.0745177 -6.45089e-05
0.0375 0.08 0.0075 0.00579612 0.0754476 0.000761353
0.0425 0.08 0.0075 0.0047096 0.0731409 0.00201847
0.0475 0.08 0.0075 0.00358859 0.0719837 0.002756
0.0525 0.08 0.0075 0.00217149 0.072789 0.0025101
0.0575 0.08 0.0075 0.000378635 0.0756643 0.00185131
0.0625 0.08 0.0075 -0.00178605 0.0801623 0.000995609
0.0675 0.08 0.0075 -0.00283639 0.0815173 0.000346355
0.0725 0.08 0.0075 -0.00335244 0.0722218 0.00022178
0.0775 0.08 0.0075 -0.00441012 0.0457636 0.000299003
0.0825 0.08 0.0075 -0.00653688 0.00628069 0.000735869
0.0875 0.08 0.0075 -0.0092182 -0.0417408 0.00152997
0.0925 0.08 0.0075 -0.00939278 -0.0900846 0.00209542
0.0975 0.08 0.0075 -0.00485003 -0.133311 0.0046447
0.0025 0.08 0.0125 0.00604306 -0.145388 -0.00233856
0.0075 0.08 0.0125 0.0111682 -0.102034 -0.00458428
0.0125 0.08 0.0125 0.0115084 -0.0502185 -0.00360296
0.0175 0.08 0.0125 0.00941734 0.00103223 -0.00203386
0.0225 0.08 0.0125 0.00768622 0.0417734 -0.000933493
0.0275 0.08 0.0125 0.00664028 0.069049 -0.000384767
0.0325 0.08 0.0125 0.00626564 0.0803559 -4.97797e-05
0.0375 0.08 0.0125 0.00560613 0.0807297 0.000285392
0.0425 0.08 0.0125 0.0043137 0.0772601 0.000695871
0.0475 0.08 0.0125 0.00288751 0.0747951 0.000820885
0.0525 0.08 0.0125 0.0012668 0.0752215 0.000367646
0.0575 0.08 0.0125 -0.000495221 0.0785771 0.000319148
0.0625 0.08 0.0125 -0.00239567 0.0833303 0.000618593
0.0675 0.08 0.0125 -0.00320261 0.0844666 0.000938178
0.0725 0.08 0.0125 -0.00355104 0.0740563 0.000852138
0.0775 0.08 0.0125 -0.00476615 0.0462782 0.00019083
0.0825 0.08 0.0125 -0.00712376 0.00558168 -0.000727141
0.0875 0.08 0.0125 -0.00985626 -0.0437224 -0.00200644
0.0925 0.08 0.0125 -0.0103113 -0.0939055 -0.0034559
0.0975 0.08 0.0125 -0.00630092 -0.137619 -0.00219619
0.0025 0.08 0.0175 0.00264548 -0.167418 -0.00343145
0.0075 0.08 0.0175 0.00420541 -0.117277 -0.00214729
0.0125 0.08 0.0175 0.00513065 -0.0642158 -0.00024504
0.0175 0.08 0.0175 0.00582135 -0.0167427 0.000889252
0.0225 0.08 0.0175 0.00663634 0.0228277 0.00151299
0.0275 0.08 0.0175 0.00647496 0.0504193 0.00164737
0.0325 0.08 0.0175 0.00591965 0.060981 0.00142373
0.0375 0.08 0.0175 0.00467601 0.0586254 0.00116952
0.0425 0.08 0.0175 0.00309257 0.0548439 0.00104725
0.0475 0.08 0.0175 0.00178112 0.0522401 0.000911712
0.0525 0.08 0.0175 0.000980513 0.0511764 0.000675933
0.0575 0.08 0.0175 -0.000442347 0.0519369 0.000968426
0.0625 0.08 0.0175 -0.00250081 0.05436 0.00156123
0.0675 0.08 0.0175 -0.0034432 0.056974 0.00210047
0.0725 0.08 0.0175 -0.00359434 0.0495592 0.00248281
0.0775 0.08 0.0175 -0.00372095 0.0242571 0.00227267
0.0825 0.08 0.0175 -0.0039135 -0.0138536 0.00151432
0.0875 0.08 0.0175 -0.00407015 -0.0604198 0.000306091
0.0925 0.08 0.0175 -0.00319727 -0.112072 -0.00141791
0.0975 0.08 0.0175 -0.00266591 -0.160062 -0.00335343
