# UMean.air  FACE_DATA 80
#  x  y  z  UMean.air_x  UMean.air_y  UMean.air_z  
0.0025 0.63 0.0025 0.00385521 0.108695 -0.00265055
0.0075 0.63 0.0025 0.0031082 0.137704 0.00161572
0.0125 0.63 0.0025 0.000918134 0.147992 0.00097283
0.0175 0.63 0.0025 0.00341315 0.153238 0.000914122
0.0225 0.63 0.0025 0.00508633 0.157721 0.00143134
0.0275 0.63 0.0025 0.00608392 0.160848 0.00173992
0.0325 0.63 0.0025 0.00701196 0.163809 0.00200789
0.0375 0.63 0.0025 0.00764594 0.166963 0.00223564
0.0425 0.63 0.0025 0.00806492 0.170256 0.00241007
0.0475 0.63 0.0025 0.00845623 0.174214 0.0022597
0.0525 0.63 0.0025 0.00866293 0.178341 0.00216706
0.0575 0.63 0.0025 0.00822804 0.182229 0.00198086
0.0625 0.63 0.0025 0.00692966 0.185354 0.00188008
0.0675 0.63 0.0025 0.00575444 0.188497 0.00163695
0.0725 0.63 0.0025 0.00492946 0.192027 0.00134923
0.0775 0.63 0.0025 0.00418939 0.195344 0.00111108
0.0825 0.63 0.0025 0.00360644 0.197683 0.000670047
0.0875 0.63 0.0025 0.00354639 0.198351 0.000618295
0.0925 0.63 0.0025 0.00202929 0.198222 0.000608005
0.0975 0.63 0.0025 0.000245706 0.17632 -0.000630662
0.0025 0.63 0.0075 0.00176161 0.197837 -0.00215862
0.0075 0.63 0.0075 0.00343869 0.261273 0.00249801
0.0125 0.63 0.0075 0.00393165 0.272458 0.00202054
0.0175 0.63 0.0075 0.0058276 0.27315 0.00175998
0.0225 0.63 0.0075 0.00676054 0.273808 0.00227829
0.0275 0.63 0.0075 0.00744617 0.273692 0.00255648
0.0325 0.63 0.0075 0.00790354 0.273888 0.00280343
0.0375 0.63 0.0075 0.00800969 0.274646 0.00307524
0.0425 0.63 0.0075 0.0079619 0.276675 0.00327057
0.0475 0.63 0.0075 0.00792775 0.280111 0.00323137
0.0525 0.63 0.0075 0.00794036 0.284184 0.0032671
0.0575 0.63 0.0075 0.00767859 0.288185 0.00320475
0.0625 0.63 0.0075 0.0068914 0.291889 0.00312939
0.0675 0.63 0.0075 0.00600591 0.295918 0.00292364
0.0725 0.63 0.0075 0.00495977 0.300002 0.00254123
0.0775 0.63 0.0075 0.00399325 0.30396 0.00224533
0.0825 0.63 0.0075 0.00294764 0.306834 0.0016165
0.0875 0.63 0.0075 0.00239052 0.311357 0.00162574
0.0925 0.63 0.0075 0.00235723 0.311751 0.00129168
0.0975 0.63 0.0075 0.00177921 0.263315 -0.000177707
0.0025 0.63 0.0125 0.00140907 0.198926 0.00141922
0.0075 0.63 0.0125 0.00299011 0.261838 -0.00287684
0.0125 0.63 0.0125 0.00366435 0.272871 -0.00227113
0.0175 0.63 0.0125 0.00562629 0.273312 -0.00227046
0.0225 0.63 0.0125 0.00657016 0.273426 -0.00282543
0.0275 0.63 0.0125 0.0073207 0.272899 -0.0033101
0.0325 0.63 0.0125 0.00792775 0.273112 -0.00365469
0.0375 0.63 0.0125 0.00818597 0.274064 -0.00365526
0.0425 0.63 0.0125 0.00818678 0.276176 -0.00346149
0.0475 0.63 0.0125 0.00802377 0.279629 -0.00316793
0.0525 0.63 0.0125 0.00792525 0.284076 -0.00288805
0.0575 0.63 0.0125 0.00776375 0.288547 -0.00286412
0.0625 0.63 0.0125 0.00719428 0.292093 -0.00241164
0.0675 0.63 0.0125 0.00627608 0.295319 -0.00202879
0.0725 0.63 0.0125 0.00504829 0.298687 -0.00187132
0.0775 0.63 0.0125 0.00390031 0.302407 -0.00164384
0.0825 0.63 0.0125 0.00272517 0.305319 -0.00119769
0.0875 0.63 0.0125 0.00204474 0.310152 -0.00117657
0.0925 0.63 0.0125 0.00207867 0.311236 -0.0012612
0.0975 0.63 0.0125 0.00165534 0.262582 -0.00160173
0.0025 0.63 0.0175 0.00347712 0.112977 0.00236497
0.0075 0.63 0.0175 0.00264498 0.144663 -0.00199414
0.0125 0.63 0.0175 0.00123128 0.155622 -0.00113213
0.0175 0.63 0.0175 0.00412236 0.158637 -0.00108891
0.0225 0.63 0.0175 0.00588814 0.160591 -0.00166087
0.0275 0.63 0.0175 0.00661944 0.161789 -0.0021665
0.0325 0.63 0.0175 0.00704447 0.164111 -0.00246857
0.0375 0.63 0.0175 0.00741451 0.167591 -0.00249996
0.0425 0.63 0.0175 0.00785243 0.171663 -0.00236348
0.0475 0.63 0.0175 0.00798714 0.175621 -0.0021358
0.0525 0.63 0.0175 0.00776979 0.179077 -0.00182377
0.0575 0.63 0.0175 0.00755366 0.182461 -0.00168808
0.0625 0.63 0.0175 0.00723257 0.185818 -0.0013882
0.0675 0.63 0.0175 0.00644766 0.189095 -0.00119787
0.0725 0.63 0.0175 0.00512773 0.192038 -0.00118473
0.0775 0.63 0.0175 0.00373163 0.195196 -0.00104559
0.0825 0.63 0.0175 0.00271773 0.197797 -0.000654618
0.0875 0.63 0.0175 0.00260447 0.199308 -0.00052185
0.0925 0.63 0.0175 0.00312895 0.200263 -0.000539341
0.0975 0.63 0.0175 0.00166867 0.176255 -0.000565003
