# alphaMean.air  FACE_DATA 80
#  x  y  z  alphaMean.air
0.0025 0.08 0.0025 0.00414992
0.0075 0.08 0.0025 0.00502856
0.0125 0.08 0.0025 0.00471073
0.0175 0.08 0.0025 0.00447669
0.0225 0.08 0.0025 0.00585101
0.0275 0.08 0.0025 0.00880053
0.0325 0.08 0.0025 0.0128593
0.0375 0.08 0.0025 0.017716
0.0425 0.08 0.0025 0.0235292
0.0475 0.08 0.0025 0.0260327
0.0525 0.08 0.0025 0.0230014
0.0575 0.08 0.0025 0.0176008
0.0625 0.08 0.0025 0.0119848
0.0675 0.08 0.0025 0.00785494
0.0725 0.08 0.0025 0.00537746
0.0775 0.08 0.0025 0.00392829
0.0825 0.08 0.0025 0.00315016
0.0875 0.08 0.0025 0.00319949
0.0925 0.08 0.0025 0.00376227
0.0975 0.08 0.0025 0.00249509
0.0025 0.08 0.0075 0.00761066
0.0075 0.08 0.0075 0.0238483
0.0125 0.08 0.0075 0.0252438
0.0175 0.08 0.0075 0.021464
0.0225 0.08 0.0075 0.022743
0.0275 0.08 0.0075 0.0304725
0.0325 0.08 0.0075 0.0472224
0.0375 0.08 0.0075 0.0712115
0.0425 0.08 0.0075 0.0965696
0.0475 0.08 0.0075 0.110819
0.0525 0.08 0.0075 0.106316
0.0575 0.08 0.0075 0.0834073
0.0625 0.08 0.0075 0.0570792
0.0675 0.08 0.0075 0.0348776
0.0725 0.08 0.0075 0.0212965
0.0775 0.08 0.0075 0.0163772
0.0825 0.08 0.0075 0.0185124
0.0875 0.08 0.0075 0.0258646
0.0925 0.08 0.0075 0.0272187
0.0975 0.08 0.0075 0.00759099
0.0025 0.08 0.0125 0.00759367
0.0075 0.08 0.0125 0.0206091
0.0125 0.08 0.0125 0.0218283
0.0175 0.08 0.0125 0.019675
0.0225 0.08 0.0125 0.0214937
0.0275 0.08 0.0125 0.0306357
0.0325 0.08 0.0125 0.0503569
0.0375 0.08 0.0125 0.0762599
0.0425 0.08 0.0125 0.101671
0.0475 0.08 0.0125 0.11589
0.0525 0.08 0.0125 0.111122
0.0575 0.08 0.0125 0.0869395
0.0625 0.08 0.0125 0.058143
0.0675 0.08 0.0125 0.0337459
0.0725 0.08 0.0125 0.0185202
0.0775 0.08 0.0125 0.0130529
0.0825 0.08 0.0125 0.0155276
0.0875 0.08 0.0125 0.0236941
0.0925 0.08 0.0125 0.0263113
0.0975 0.08 0.0125 0.00672811
0.0025 0.08 0.0175 0.00410119
0.0075 0.08 0.0175 0.00478439
0.0125 0.08 0.0175 0.00449942
0.0175 0.08 0.0175 0.00426696
0.0225 0.08 0.0175 0.0051533
0.0275 0.08 0.0175 0.00730725
0.0325 0.08 0.0175 0.0117494
0.0375 0.08 0.0175 0.0178998
0.0425 0.08 0.0175 0.0250716
0.0475 0.08 0.0175 0.0302383
0.0525 0.08 0.0175 0.0287803
0.0575 0.08 0.0175 0.0202671
0.0625 0.08 0.0175 0.0123064
0.0675 0.08 0.0175 0.00718228
0.0725 0.08 0.0175 0.0043291
0.0775 0.08 0.0175 0.00316499
0.0825 0.08 0.0175 0.00295764
0.0875 0.08 0.0175 0.00307625
0.0925 0.08 0.0175 0.00393005
0.0975 0.08 0.0175 0.00274202
