# alphaMean.water  FACE_DATA 80
#  x  y  z  alphaMean.water
0.0025 0.63 0.0025 0.996556
0.0075 0.63 0.0025 0.991859
0.0125 0.63 0.0025 0.994583
0.0175 0.63 0.0025 0.996442
0.0225 0.63 0.0025 0.996744
0.0275 0.63 0.0025 0.997309
0.0325 0.63 0.0025 0.997641
0.0375 0.63 0.0025 0.997639
0.0425 0.63 0.0025 0.997578
0.0475 0.63 0.0025 0.997544
0.0525 0.63 0.0025 0.997598
0.0575 0.63 0.0025 0.997687
0.0625 0.63 0.0025 0.997785
0.0675 0.63 0.0025 0.99787
0.0725 0.63 0.0025 0.997901
0.0775 0.63 0.0025 0.997896
0.0825 0.63 0.0025 0.997885
0.0875 0.63 0.0025 0.997316
0.0925 0.63 0.0025 0.996657
0.0975 0.63 0.0025 0.99848
0.0025 0.63 0.0075 0.988932
0.0075 0.63 0.0075 0.89469
0.0125 0.63 0.0075 0.91289
0.0175 0.63 0.0075 0.930551
0.0225 0.63 0.0075 0.92722
0.0275 0.63 0.0075 0.929411
0.0325 0.63 0.0075 0.929191
0.0375 0.63 0.0075 0.93024
0.0425 0.63 0.0075 0.930681
0.0475 0.63 0.0075 0.930585
0.0525 0.63 0.0075 0.93023
0.0575 0.63 0.0075 0.930001
0.0625 0.63 0.0075 0.930133
0.0675 0.63 0.0075 0.929734
0.0725 0.63 0.0075 0.929461
0.0775 0.63 0.0075 0.926821
0.0825 0.63 0.0075 0.929493
0.0875 0.63 0.0075 0.915933
0.0925 0.63 0.0075 0.904844
0.0975 0.63 0.0075 0.994306
0.0025 0.63 0.0125 0.988692
0.0075 0.63 0.0125 0.894692
0.0125 0.63 0.0125 0.912594
0.0175 0.63 0.0125 0.930274
0.0225 0.63 0.0125 0.926575
0.0275 0.63 0.0125 0.928932
0.0325 0.63 0.0125 0.928991
0.0375 0.63 0.0125 0.930165
0.0425 0.63 0.0125 0.930553
0.0475 0.63 0.0125 0.930196
0.0525 0.63 0.0125 0.929685
0.0575 0.63 0.0125 0.929469
0.0625 0.63 0.0125 0.929609
0.0675 0.63 0.0125 0.929388
0.0725 0.63 0.0125 0.929223
0.0775 0.63 0.0125 0.926571
0.0825 0.63 0.0125 0.929032
0.0875 0.63 0.0125 0.915708
0.0925 0.63 0.0125 0.901307
0.0975 0.63 0.0125 0.993528
0.0025 0.63 0.0175 0.996688
0.0075 0.63 0.0175 0.991956
0.0125 0.63 0.0175 0.994615
0.0175 0.63 0.0175 0.996462
0.0225 0.63 0.0175 0.996777
0.0275 0.63 0.0175 0.997377
0.0325 0.63 0.0175 0.997711
0.0375 0.63 0.0175 0.997736
0.0425 0.63 0.0175 0.997636
0.0475 0.63 0.0175 0.997587
0.0525 0.63 0.0175 0.997607
0.0575 0.63 0.0175 0.997696
0.0625 0.63 0.0175 0.99779
0.0675 0.63 0.0175 0.997869
0.0725 0.63 0.0175 0.997899
0.0775 0.63 0.0175 0.997884
0.0825 0.63 0.0175 0.997879
0.0875 0.63 0.0175 0.99725
0.0925 0.63 0.0175 0.996453
0.0975 0.63 0.0175 0.998632
