# alphaMean.water  FACE_DATA 80
#  x  y  z  alphaMean.water
0.0025 0.08 0.0025 0.99585
0.0075 0.08 0.0025 0.994971
0.0125 0.08 0.0025 0.995289
0.0175 0.08 0.0025 0.995523
0.0225 0.08 0.0025 0.994149
0.0275 0.08 0.0025 0.991199
0.0325 0.08 0.0025 0.987141
0.0375 0.08 0.0025 0.982284
0.0425 0.08 0.0025 0.976471
0.0475 0.08 0.0025 0.973967
0.0525 0.08 0.0025 0.976999
0.0575 0.08 0.0025 0.982399
0.0625 0.08 0.0025 0.988015
0.0675 0.08 0.0025 0.992145
0.0725 0.08 0.0025 0.994623
0.0775 0.08 0.0025 0.996072
0.0825 0.08 0.0025 0.99685
0.0875 0.08 0.0025 0.996801
0.0925 0.08 0.0025 0.996238
0.0975 0.08 0.0025 0.997505
0.0025 0.08 0.0075 0.992389
0.0075 0.08 0.0075 0.976152
0.0125 0.08 0.0075 0.974756
0.0175 0.08 0.0075 0.978536
0.0225 0.08 0.0075 0.977257
0.0275 0.08 0.0075 0.969527
0.0325 0.08 0.0075 0.952778
0.0375 0.08 0.0075 0.928789
0.0425 0.08 0.0075 0.90343
0.0475 0.08 0.0075 0.889181
0.0525 0.08 0.0075 0.893684
0.0575 0.08 0.0075 0.916593
0.0625 0.08 0.0075 0.942921
0.0675 0.08 0.0075 0.965122
0.0725 0.08 0.0075 0.978703
0.0775 0.08 0.0075 0.983623
0.0825 0.08 0.0075 0.981488
0.0875 0.08 0.0075 0.974135
0.0925 0.08 0.0075 0.972781
0.0975 0.08 0.0075 0.992409
0.0025 0.08 0.0125 0.992406
0.0075 0.08 0.0125 0.979391
0.0125 0.08 0.0125 0.978172
0.0175 0.08 0.0125 0.980325
0.0225 0.08 0.0125 0.978506
0.0275 0.08 0.0125 0.969364
0.0325 0.08 0.0125 0.949643
0.0375 0.08 0.0125 0.92374
0.0425 0.08 0.0125 0.898329
0.0475 0.08 0.0125 0.88411
0.0525 0.08 0.0125 0.888878
0.0575 0.08 0.0125 0.913061
0.0625 0.08 0.0125 0.941857
0.0675 0.08 0.0125 0.966254
0.0725 0.08 0.0125 0.98148
0.0775 0.08 0.0125 0.986947
0.0825 0.08 0.0125 0.984472
0.0875 0.08 0.0125 0.976306
0.0925 0.08 0.0125 0.973689
0.0975 0.08 0.0125 0.993272
0.0025 0.08 0.0175 0.995899
0.0075 0.08 0.0175 0.995216
0.0125 0.08 0.0175 0.995501
0.0175 0.08 0.0175 0.995733
0.0225 0.08 0.0175 0.994847
0.0275 0.08 0.0175 0.992693
0.0325 0.08 0.0175 0.988251
0.0375 0.08 0.0175 0.9821
0.0425 0.08 0.0175 0.974928
0.0475 0.08 0.0175 0.969762
0.0525 0.08 0.0175 0.97122
0.0575 0.08 0.0175 0.979733
0.0625 0.08 0.0175 0.987694
0.0675 0.08 0.0175 0.992818
0.0725 0.08 0.0175 0.995671
0.0775 0.08 0.0175 0.996835
0.0825 0.08 0.0175 0.997042
0.0875 0.08 0.0175 0.996924
0.0925 0.08 0.0175 0.99607
0.0975 0.08 0.0175 0.997258
