# alphaMean.air  FACE_DATA 80
#  x  y  z  alphaMean.air
0.0025 0.63 0.0025 0.00344442
0.0075 0.63 0.0025 0.00814108
0.0125 0.63 0.0025 0.00541662
0.0175 0.63 0.0025 0.0035583
0.0225 0.63 0.0025 0.00325594
0.0275 0.63 0.0025 0.0026907
0.0325 0.63 0.0025 0.00235906
0.0375 0.63 0.0025 0.00236097
0.0425 0.63 0.0025 0.00242178
0.0475 0.63 0.0025 0.00245626
0.0525 0.63 0.0025 0.00240211
0.0575 0.63 0.0025 0.0023126
0.0625 0.63 0.0025 0.0022147
0.0675 0.63 0.0025 0.00212978
0.0725 0.63 0.0025 0.00209866
0.0775 0.63 0.0025 0.00210353
0.0825 0.63 0.0025 0.00211532
0.0875 0.63 0.0025 0.00268404
0.0925 0.63 0.0025 0.00334302
0.0975 0.63 0.0025 0.00152024
0.0025 0.63 0.0075 0.0110676
0.0075 0.63 0.0075 0.10531
0.0125 0.63 0.0075 0.0871095
0.0175 0.63 0.0075 0.0694486
0.0225 0.63 0.0075 0.0727805
0.0275 0.63 0.0075 0.0705894
0.0325 0.63 0.0075 0.0708094
0.0375 0.63 0.0075 0.0697604
0.0425 0.63 0.0075 0.0693189
0.0475 0.63 0.0075 0.069415
0.0525 0.63 0.0075 0.0697696
0.0575 0.63 0.0075 0.0699987
0.0625 0.63 0.0075 0.0698668
0.0675 0.63 0.0075 0.0702655
0.0725 0.63 0.0075 0.0705391
0.0775 0.63 0.0075 0.0731795
0.0825 0.63 0.0075 0.070507
0.0875 0.63 0.0075 0.0840671
0.0925 0.63 0.0075 0.0951563
0.0975 0.63 0.0075 0.00569371
0.0025 0.63 0.0125 0.0113085
0.0075 0.63 0.0125 0.105308
0.0125 0.63 0.0125 0.0874063
0.0175 0.63 0.0125 0.0697263
0.0225 0.63 0.0125 0.0734249
0.0275 0.63 0.0125 0.0710678
0.0325 0.63 0.0125 0.0710085
0.0375 0.63 0.0125 0.0698353
0.0425 0.63 0.0125 0.0694473
0.0475 0.63 0.0125 0.069804
0.0525 0.63 0.0125 0.0703152
0.0575 0.63 0.0125 0.0705311
0.0625 0.63 0.0125 0.0703912
0.0675 0.63 0.0125 0.070612
0.0725 0.63 0.0125 0.0707769
0.0775 0.63 0.0125 0.0734288
0.0825 0.63 0.0125 0.0709682
0.0875 0.63 0.0125 0.0842919
0.0925 0.63 0.0125 0.0986925
0.0975 0.63 0.0125 0.00647232
0.0025 0.63 0.0175 0.00331183
0.0075 0.63 0.0175 0.00804402
0.0125 0.63 0.0175 0.00538516
0.0175 0.63 0.0175 0.00353793
0.0225 0.63 0.0175 0.00322257
0.0275 0.63 0.0175 0.00262332
0.0325 0.63 0.0175 0.00228879
0.0375 0.63 0.0175 0.00226375
0.0425 0.63 0.0175 0.00236426
0.0475 0.63 0.0175 0.00241319
0.0525 0.63 0.0175 0.00239253
0.0575 0.63 0.0175 0.00230431
0.0625 0.63 0.0175 0.00220968
0.0675 0.63 0.0175 0.00213145
0.0725 0.63 0.0175 0.00210088
0.0775 0.63 0.0175 0.00211567
0.0825 0.63 0.0175 0.0021211
0.0875 0.63 0.0175 0.00274956
0.0925 0.63 0.0175 0.00354706
0.0975 0.63 0.0175 0.00136756
