# pMean  FACE_DATA 80
#  x  y  z  pMean
0.0025 0.08 0.0025 108596
0.0075 0.08 0.0025 108596
0.0125 0.08 0.0025 108594
0.0175 0.08 0.0025 108593
0.0225 0.08 0.0025 108592
0.0275 0.08 0.0025 108591
0.0325 0.08 0.0025 108590
0.0375 0.08 0.0025 108589
0.0425 0.08 0.0025 108587
0.0475 0.08 0.0025 108587
0.0525 0.08 0.0025 108586
0.0575 0.08 0.0025 108586
0.0625 0.08 0.0025 108587
0.0675 0.08 0.0025 108588
0.0725 0.08 0.0025 108589
0.0775 0.08 0.0025 108590
0.0825 0.08 0.0025 108591
0.0875 0.08 0.0025 108592
0.0925 0.08 0.0025 108593
0.0975 0.08 0.0025 108593
0.0025 0.08 0.0075 108596
0.0075 0.08 0.0075 108595
0.0125 0.08 0.0075 108594
0.0175 0.08 0.0075 108593
0.0225 0.08 0.0075 108592
0.0275 0.08 0.0075 108591
0.0325 0.08 0.0075 108589
0.0375 0.08 0.0075 108588
0.0425 0.08 0.0075 108587
0.0475 0.08 0.0075 108586
0.0525 0.08 0.0075 108586
0.0575 0.08 0.0075 108586
0.0625 0.08 0.0075 108587
0.0675 0.08 0.0075 108587
0.0725 0.08 0.0075 108588
0.0775 0.08 0.0075 108589
0.0825 0.08 0.0075 108590
0.0875 0.08 0.0075 108591
0.0925 0.08 0.0075 108592
0.0975 0.08 0.0075 108593
0.0025 0.08 0.0125 108595
0.0075 0.08 0.0125 108595
0.0125 0.08 0.0125 108594
0.0175 0.08 0.0125 108593
0.0225 0.08 0.0125 108592
0.0275 0.08 0.0125 108591
0.0325 0.08 0.0125 108590
0.0375 0.08 0.0125 108588
0.0425 0.08 0.0125 108587
0.0475 0.08 0.0125 108586
0.0525 0.08 0.0125 108586
0.0575 0.08 0.0125 108586
0.0625 0.08 0.0125 108587
0.0675 0.08 0.0125 108587
0.0725 0.08 0.0125 108588
0.0775 0.08 0.0125 108589
0.0825 0.08 0.0125 108590
0.0875 0.08 0.0125 108591
0.0925 0.08 0.0125 108592
0.0975 0.08 0.0125 108593
0.0025 0.08 0.0175 108596
0.0075 0.08 0.0175 108596
0.0125 0.08 0.0175 108595
0.0175 0.08 0.0175 108594
0.0225 0.08 0.0175 108593
0.0275 0.08 0.0175 108592
0.0325 0.08 0.0175 108590
0.0375 0.08 0.0175 108589
0.0425 0.08 0.0175 108588
0.0475 0.08 0.0175 108587
0.0525 0.08 0.0175 108586
0.0575 0.08 0.0175 108587
0.0625 0.08 0.0175 108588
0.0675 0.08 0.0175 108588
0.0725 0.08 0.0175 108589
0.0775 0.08 0.0175 108590
0.0825 0.08 0.0175 108591
0.0875 0.08 0.0175 108592
0.0925 0.08 0.0175 108592
0.0975 0.08 0.0175 108593
