# UMean.air  FACE_DATA 80
#  x  y  z  UMean.air_x  UMean.air_y  UMean.air_z  
0.0025 0.08 0.0025 0.00636243 -0.0478683 0.0302175
0.0075 0.08 0.0025 0.0111443 0.00111589 0.0276542
0.0125 0.08 0.0025 0.017767 0.0574276 0.0225192
0.0175 0.08 0.0025 0.0188701 0.118218 0.0253344
0.0225 0.08 0.0025 0.0170763 0.186599 0.0246291
0.0275 0.08 0.0025 0.0159987 0.257577 0.020558
0.0325 0.08 0.0025 0.0165168 0.326143 0.0167376
0.0375 0.08 0.0025 0.0179013 0.391289 0.0129206
0.0425 0.08 0.0025 0.0183505 0.443029 0.0103365
0.0475 0.08 0.0025 0.0186037 0.467512 0.00824166
0.0525 0.08 0.0025 0.0189676 0.459605 0.00839622
0.0575 0.08 0.0025 0.018938 0.424212 0.0119569
0.0625 0.08 0.0025 0.019626 0.370698 0.0149704
0.0675 0.08 0.0025 0.0189416 0.303661 0.0178945
0.0725 0.08 0.0025 0.0159904 0.233445 0.0215397
0.0775 0.08 0.0025 0.00966626 0.161107 0.024657
0.0825 0.08 0.0025 0.00282534 0.0920588 0.0255437
0.0875 0.08 0.0025 0.00145174 0.0260254 0.0258954
0.0925 0.08 0.0025 -0.00146365 -0.0374742 0.0312353
0.0975 0.08 0.0025 -0.00725508 -0.0900552 0.0304154
0.0025 0.08 0.0075 0.0321631 -0.0180081 0.0314421
0.0075 0.08 0.0075 0.0362671 0.03951 0.0318212
0.0125 0.08 0.0075 0.01601 0.0934303 0.0270446
0.0175 0.08 0.0075 0.0192959 0.143863 0.0279162
0.0225 0.08 0.0075 0.0139169 0.207851 0.0250153
0.0275 0.08 0.0075 0.00540688 0.285557 0.0199407
0.0325 0.08 0.0075 -0.000421661 0.371452 0.0167664
0.0375 0.08 0.0075 0.000193566 0.461063 0.0149142
0.0425 0.08 0.0075 0.00533228 0.536382 0.0148374
0.0475 0.08 0.0075 0.0143091 0.576598 0.0136564
0.0525 0.08 0.0075 0.0271698 0.567178 0.0126258
0.0575 0.08 0.0075 0.0362393 0.508674 0.0152809
0.0625 0.08 0.0075 0.0388374 0.425491 0.0171019
0.0675 0.08 0.0075 0.0352365 0.334971 0.0183122
0.0725 0.08 0.0075 0.0233332 0.248309 0.0218057
0.0775 0.08 0.0075 0.00808907 0.172131 0.0258004
0.0825 0.08 0.0075 -0.00425714 0.105157 0.0267616
0.0875 0.08 0.0075 -0.00246618 0.047883 0.0285275
0.0925 0.08 0.0075 -0.0303587 -0.00643969 0.034563
0.0975 0.08 0.0075 -0.0316095 -0.0643731 0.0329279
0.0025 0.08 0.0125 0.0314687 -0.0177387 -0.0355693
0.0075 0.08 0.0125 0.0330961 0.0406634 -0.0361542
0.0125 0.08 0.0125 0.00902048 0.0964587 -0.0306067
0.0175 0.08 0.0125 0.0137195 0.149374 -0.0314647
0.0225 0.08 0.0125 0.0112533 0.21113 -0.032118
0.0275 0.08 0.0125 0.00450822 0.288309 -0.0321707
0.0325 0.08 0.0125 -0.000580821 0.37769 -0.0275624
0.0375 0.08 0.0125 -0.000665416 0.469548 -0.0216841
0.0425 0.08 0.0125 0.00615908 0.546984 -0.0180898
0.0475 0.08 0.0125 0.01748 0.588626 -0.0171121
0.0525 0.08 0.0125 0.0309333 0.578566 -0.0184518
0.0575 0.08 0.0125 0.040743 0.517406 -0.0216363
0.0625 0.08 0.0125 0.0429695 0.429873 -0.0248849
0.0675 0.08 0.0125 0.0385105 0.336253 -0.0279903
0.0725 0.08 0.0125 0.0250811 0.247856 -0.0303313
0.0775 0.08 0.0125 0.00878624 0.171156 -0.0306517
0.0825 0.08 0.0125 -0.00243839 0.104419 -0.030871
0.0875 0.08 0.0125 -0.00207306 0.0470994 -0.0308703
0.0925 0.08 0.0125 -0.0299043 -0.00919121 -0.0343717
0.0975 0.08 0.0125 -0.0306761 -0.0657126 -0.0350973
0.0025 0.08 0.0175 0.00448235 -0.0522361 -0.0319542
0.0075 0.08 0.0175 0.00368814 -0.000795792 -0.0316781
0.0125 0.08 0.0175 0.00341155 0.0655394 -0.0257295
0.0175 0.08 0.0175 0.00739515 0.132116 -0.0261351
0.0225 0.08 0.0175 0.0127646 0.195374 -0.0265881
0.0275 0.08 0.0175 0.0137737 0.266174 -0.0255064
0.0325 0.08 0.0175 0.0145376 0.337298 -0.0204666
0.0375 0.08 0.0175 0.0151224 0.403213 -0.0142479
0.0425 0.08 0.0175 0.0193997 0.45998 -0.0104819
0.0475 0.08 0.0175 0.0251657 0.492781 -0.009438
0.0525 0.08 0.0175 0.0298331 0.488745 -0.0106044
0.0575 0.08 0.0175 0.0317316 0.445672 -0.0143072
0.0625 0.08 0.0175 0.0299868 0.382052 -0.0192245
0.0675 0.08 0.0175 0.0257736 0.309929 -0.0221003
0.0725 0.08 0.0175 0.0172603 0.235545 -0.0255552
0.0775 0.08 0.0175 0.0111965 0.161816 -0.0272783
0.0825 0.08 0.0175 0.00659655 0.0912154 -0.028027
0.0875 0.08 0.0175 0.00330901 0.0243011 -0.0270191
0.0925 0.08 0.0175 4.34123e-05 -0.0423537 -0.0306421
0.0975 0.08 0.0175 -0.0038108 -0.0915388 -0.0342904
