# UMean.water  FACE_DATA 80
#  x  y  z  UMean.water_x  UMean.water_y  UMean.water_z  
0.0025 0.08 0.0025 0.00801407 -0.279177 -0.00166661
0.0075 0.08 0.0025 0.0154671 -0.22878 -0.0015215
0.0125 0.08 0.0025 0.0242082 -0.172496 -0.00205697
0.0175 0.08 0.0025 0.0285314 -0.111642 -0.00133799
0.0225 0.08 0.0025 0.0311063 -0.0427545 -0.00237738
0.0275 0.08 0.0025 0.034049 0.0280527 -0.00429634
0.0325 0.08 0.0025 0.0346776 0.0957852 -0.00434509
0.0375 0.08 0.0025 0.0322657 0.161133 -0.00358424
0.0425 0.08 0.0025 0.0270539 0.2131 -0.00298322
0.0475 0.08 0.0025 0.0201167 0.238013 -0.00268031
0.0525 0.08 0.0025 0.0130238 0.230294 -0.00281193
0.0575 0.08 0.0025 0.00677527 0.194938 -0.00261697
0.0625 0.08 0.0025 0.00247733 0.14172 -0.00191931
0.0675 0.08 0.0025 -0.000923432 0.0755179 -0.0026354
0.0725 0.08 0.0025 -0.00300114 0.00597409 -0.00261047
0.0775 0.08 0.0025 -0.00436576 -0.0667476 -0.00170885
0.0825 0.08 0.0025 -0.00630751 -0.136254 -0.000661572
0.0875 0.08 0.0025 -0.00504857 -0.202193 -0.000283486
0.0925 0.08 0.0025 -0.00224769 -0.264339 0.000500786
0.0975 0.08 0.0025 -0.00234792 -0.319467 0.00203726
0.0025 0.08 0.0075 0.00666692 -0.246714 -0.00130508
0.0075 0.08 0.0075 0.0168914 -0.188589 0.000530005
0.0125 0.08 0.0075 0.024463 -0.13523 0.00128997
0.0175 0.08 0.0075 0.0296832 -0.0855123 0.00238893
0.0225 0.08 0.0075 0.0339074 -0.0220634 0.000236132
0.0275 0.08 0.0075 0.0372245 0.0558679 -0.00233797
0.0325 0.08 0.0075 0.0366208 0.142261 -0.00148527
0.0375 0.08 0.0075 0.0329748 0.232025 0.000963851
0.0425 0.08 0.0075 0.0266818 0.308196 0.00382086
0.0475 0.08 0.0075 0.0190493 0.349935 0.0050673
0.0525 0.08 0.0075 0.0134105 0.341099 0.00424914
0.0575 0.08 0.0075 0.008172 0.282904 0.0032981
0.0625 0.08 0.0075 0.00224126 0.200164 0.00225367
0.0675 0.08 0.0075 -0.00343559 0.109838 -9.70102e-05
0.0725 0.08 0.0075 -0.00812648 0.0231756 -0.000747907
0.0775 0.08 0.0075 -0.0112899 -0.0533418 0.000814911
0.0825 0.08 0.0075 -0.0135039 -0.120539 0.00130789
0.0875 0.08 0.0075 -0.0106198 -0.177468 0.00189868
0.0925 0.08 0.0075 -0.00944987 -0.231451 0.00366093
0.0975 0.08 0.0075 -0.0035448 -0.291502 0.00452766
0.0025 0.08 0.0125 0.00517271 -0.246819 -0.00751597
0.0075 0.08 0.0125 0.0133704 -0.187309 -0.00869507
0.0125 0.08 0.0125 0.0200895 -0.131397 -0.00694442
0.0175 0.08 0.0125 0.0262452 -0.0794296 -0.00522284
0.0225 0.08 0.0125 0.032317 -0.0182149 -0.00575553
0.0275 0.08 0.0125 0.0366863 0.059194 -0.00817666
0.0325 0.08 0.0125 0.0366272 0.148248 -0.00734968
0.0375 0.08 0.0125 0.032085 0.238677 -0.00441222
0.0425 0.08 0.0125 0.0269514 0.316879 -0.00174573
0.0475 0.08 0.0125 0.0213801 0.360914 -0.0010369
0.0525 0.08 0.0125 0.016486 0.352183 -0.00201446
0.0575 0.08 0.0125 0.011618 0.29155 -0.00356349
0.0625 0.08 0.0125 0.00535515 0.20494 -0.00526096
0.0675 0.08 0.0125 -0.000731605 0.110839 -0.00779186
0.0725 0.08 0.0125 -0.0072146 0.0221417 -0.0070085
0.0775 0.08 0.0125 -0.010574 -0.0547704 -0.00392842
0.0825 0.08 0.0125 -0.0120629 -0.12156 -0.00345376
0.0875 0.08 0.0125 -0.010617 -0.178249 -0.00462559
0.0925 0.08 0.0125 -0.00938856 -0.23415 -0.00526152
0.0975 0.08 0.0125 -0.00395775 -0.292104 -0.0025222
0.0025 0.08 0.0175 0.00478509 -0.284667 -0.00201529
0.0075 0.08 0.0175 0.00665655 -0.231218 -0.00289971
0.0125 0.08 0.0175 0.0128459 -0.165922 -0.00167456
0.0175 0.08 0.0175 0.020285 -0.100325 -0.000846875
0.0225 0.08 0.0175 0.0282785 -0.037073 -0.000988222
0.0275 0.08 0.0175 0.0325315 0.0339171 -0.00205446
0.0325 0.08 0.0175 0.0330344 0.106295 -0.000710602
0.0375 0.08 0.0175 0.0304456 0.172929 0.00239656
0.0425 0.08 0.0175 0.0284971 0.22978 0.00467634
0.0475 0.08 0.0175 0.0263901 0.263019 0.00510788
0.0525 0.08 0.0175 0.0228208 0.2593 0.00408556
0.0575 0.08 0.0175 0.0172484 0.216178 0.00225666
0.0625 0.08 0.0175 0.010083 0.152919 -0.000191952
0.0675 0.08 0.0175 0.00368559 0.0804369 -0.00129703
0.0725 0.08 0.0175 -0.0029506 0.006641 -0.00125297
0.0775 0.08 0.0175 -0.00429443 -0.0666016 -0.000129938
0.0825 0.08 0.0175 -0.0046527 -0.136689 -0.000286557
0.0875 0.08 0.0175 -0.00412892 -0.203695 -0.00061402
0.0925 0.08 0.0175 -0.00343754 -0.269537 -0.00130275
0.0975 0.08 0.0175 -0.00397389 -0.320698 -0.000616593
