# UMean.water  FACE_DATA 80
#  x  y  z  UMean.water_x  UMean.water_y  UMean.water_z  
0.0025 0.63 0.0025 -0.00313765 -0.213305 0.00303767
0.0075 0.63 0.0025 -0.00209953 -0.0638803 -0.00215558
0.0125 0.63 0.0025 -0.0004039 -0.0141931 -0.00248712
0.0175 0.63 0.0025 0.00157786 -0.011194 -0.00235702
0.0225 0.63 0.0025 0.00305753 -0.013765 -0.00230783
0.0275 0.63 0.0025 0.00442061 -0.0264838 -0.00200755
0.0325 0.63 0.0025 0.00499114 -0.0400018 -0.00157012
0.0375 0.63 0.0025 0.00572707 -0.0521778 -0.000957115
0.0425 0.63 0.0025 0.00618191 -0.0629645 -0.000513541
0.0475 0.63 0.0025 0.00708915 -0.0729683 -0.000297236
0.0525 0.63 0.0025 0.00767976 -0.0818234 -0.000428049
0.0575 0.63 0.0025 0.00843495 -0.0903207 -0.000534851
0.0625 0.63 0.0025 0.00855822 -0.0981905 -0.000602863
0.0675 0.63 0.0025 0.00820006 -0.102632 -0.00067374
0.0725 0.63 0.0025 0.00736074 -0.103299 -0.000762176
0.0775 0.63 0.0025 0.00678195 -0.0976727 -0.000981795
0.0825 0.63 0.0025 0.00575015 -0.088603 -0.00127653
0.0875 0.63 0.0025 0.00535569 -0.0758277 -0.00205592
0.0925 0.63 0.0025 0.00524576 -0.10135 -0.00140821
0.0975 0.63 0.0025 0.00335802 -0.226259 0.00301217
0.0025 0.63 0.0075 0.00280393 -0.103474 0.00325918
0.0075 0.63 0.0075 0.00489079 0.062808 0.0006649
0.0125 0.63 0.0075 0.00442963 0.114917 -0.000222316
0.0175 0.63 0.0075 0.00342955 0.132788 -0.000373643
0.0225 0.63 0.0075 0.00243039 0.15031 7.58098e-05
0.0275 0.63 0.0075 0.00199672 0.157062 0.000540257
0.0325 0.63 0.0075 0.00163038 0.156904 0.000693538
0.0375 0.63 0.0075 0.00158219 0.149162 0.00076283
0.0425 0.63 0.0075 0.00176015 0.13847 0.000718079
0.0475 0.63 0.0075 0.00226294 0.127742 0.000686129
0.0525 0.63 0.0075 0.00266638 0.118086 0.000659023
0.0575 0.63 0.0075 0.00320138 0.108646 0.000757096
0.0625 0.63 0.0075 0.00372131 0.0992889 0.00086678
0.0675 0.63 0.0075 0.00414329 0.0916424 0.000887075
0.0725 0.63 0.0075 0.00412737 0.0860119 0.000757158
0.0775 0.63 0.0075 0.00388526 0.0831324 0.000473707
0.0825 0.63 0.0075 0.00267168 0.0764381 -9.97098e-05
0.0875 0.63 0.0075 0.00087056 0.0715312 -0.000439996
0.0925 0.63 0.0075 -0.00161033 0.0324026 0.000298224
0.0975 0.63 0.0075 -0.00179534 -0.136387 0.00365029
0.0025 0.63 0.0125 0.00274224 -0.101174 -0.00234141
0.0075 0.63 0.0125 0.00487226 0.06246 -0.000626648
0.0125 0.63 0.0125 0.00439155 0.114578 6.82297e-05
0.0175 0.63 0.0125 0.00340572 0.132643 0.000235551
0.0225 0.63 0.0125 0.00234523 0.150714 -0.000149027
0.0275 0.63 0.0125 0.0019502 0.157978 -0.000511433
0.0325 0.63 0.0125 0.00166128 0.157819 -0.000683883
0.0375 0.63 0.0125 0.0016688 0.149629 -0.000783171
0.0425 0.63 0.0125 0.00182467 0.138515 -0.000808157
0.0475 0.63 0.0125 0.00228794 0.127966 -0.000744547
0.0525 0.63 0.0125 0.00263341 0.118823 -0.000714335
0.0575 0.63 0.0125 0.0030974 0.109718 -0.000757638
0.0625 0.63 0.0125 0.00366083 0.1002 -0.000882734
0.0675 0.63 0.0125 0.00417484 0.0920302 -0.00093659
0.0725 0.63 0.0125 0.00416226 0.086036 -0.000875569
0.0775 0.63 0.0125 0.00379115 0.0831168 -0.000614828
0.0825 0.63 0.0125 0.00245351 0.0764915 -0.000243858
0.0875 0.63 0.0125 0.000287234 0.0714388 -0.000202252
0.0925 0.63 0.0125 -0.00242314 0.033418 -0.0010959
0.0975 0.63 0.0125 -0.00174047 -0.134436 -0.00278031
0.0025 0.63 0.0175 -0.00274141 -0.214775 -0.00267696
0.0075 0.63 0.0175 -0.001444 -0.0670129 0.00213056
0.0125 0.63 0.0175 -5.78486e-05 -0.0161567 0.0023457
0.0175 0.63 0.0175 0.00170945 -0.0121722 0.00223989
0.0225 0.63 0.0175 0.00290441 -0.0137013 0.00224546
0.0275 0.63 0.0175 0.00436019 -0.0254143 0.0020436
0.0325 0.63 0.0175 0.00507519 -0.0390586 0.00164623
0.0375 0.63 0.0175 0.00591288 -0.0520565 0.00102108
0.0425 0.63 0.0175 0.00624886 -0.062895 0.000524492
0.0475 0.63 0.0175 0.0070094 -0.0721974 0.000351893
0.0525 0.63 0.0175 0.00750565 -0.0801974 0.000468518
0.0575 0.63 0.0175 0.00812487 -0.0886451 0.000592366
0.0625 0.63 0.0175 0.00838251 -0.0979082 0.000547021
0.0675 0.63 0.0175 0.00834203 -0.104114 0.000589375
0.0725 0.63 0.0175 0.00757096 -0.104606 0.000708118
0.0775 0.63 0.0175 0.00687675 -0.0976232 0.000985424
0.0825 0.63 0.0175 0.00574827 -0.0884248 0.00129829
0.0875 0.63 0.0175 0.00504573 -0.0765657 0.00202162
0.0925 0.63 0.0175 0.00453259 -0.102895 0.00160452
0.0975 0.63 0.0175 0.003002 -0.22844 -0.00272069
