# UMean.air  FACE_DATA 80
#  x  y  z  UMean.air_x  UMean.air_y  UMean.air_z  
0.0025 0.63 0.0025 0.0209345 0.0113303 -0.00369596
0.0075 0.63 0.0025 0.00663085 0.159451 0.000910809
0.0125 0.63 0.0025 -0.0105517 0.211561 -0.000494103
0.0175 0.63 0.0025 0.00116415 0.214768 0.000229006
0.0225 0.63 0.0025 0.00495995 0.212086 0.00116545
0.0275 0.63 0.0025 0.00702189 0.199341 0.00124877
0.0325 0.63 0.0025 0.0074301 0.185832 0.00142517
0.0375 0.63 0.0025 0.00801569 0.173793 0.00152157
0.0425 0.63 0.0025 0.00851956 0.163133 0.00149771
0.0475 0.63 0.0025 0.00956638 0.15317 0.00173064
0.0525 0.63 0.0025 0.0101385 0.144238 0.00184625
0.0575 0.63 0.0025 0.0105807 0.135657 0.00211497
0.0625 0.63 0.0025 0.00992432 0.127661 0.00225967
0.0675 0.63 0.0025 0.00834651 0.12313 0.00212428
0.0725 0.63 0.0025 0.00597741 0.122417 0.00210121
0.0775 0.63 0.0025 0.00420497 0.127985 0.00172691
0.0825 0.63 0.0025 0.0033615 0.137027 0.000533938
0.0875 0.63 0.0025 0.0103744 0.149758 -0.000152711
0.0925 0.63 0.0025 0.0193043 0.123909 0.00133301
0.0975 0.63 0.0025 0.0112725 -0.000468949 0.0311831
0.0025 0.63 0.0075 0.00657578 0.121899 0.00272587
0.0075 0.63 0.0075 0.00316689 0.285944 0.00427191
0.0125 0.63 0.0075 -0.00131212 0.338138 0.00183889
0.0175 0.63 0.0075 0.00249108 0.35654 0.00241726
0.0225 0.63 0.0075 0.000842099 0.373813 0.00375177
0.0275 0.63 0.0075 0.00216869 0.380664 0.00390917
0.0325 0.63 0.0075 0.00233463 0.380455 0.00379493
0.0375 0.63 0.0075 0.00290375 0.372792 0.00340086
0.0425 0.63 0.0075 0.00338372 0.362179 0.00284553
0.0475 0.63 0.0075 0.00387885 0.351436 0.00281475
0.0525 0.63 0.0075 0.00395895 0.341727 0.00309231
0.0575 0.63 0.0075 0.00424613 0.332246 0.00353813
0.0625 0.63 0.0075 0.00458326 0.32283 0.003821
0.0675 0.63 0.0075 0.00479788 0.31509 0.00383356
0.0725 0.63 0.0075 0.00419129 0.30941 0.00382236
0.0775 0.63 0.0075 0.00422442 0.306413 0.00338254
0.0825 0.63 0.0075 0.00177566 0.299903 0.00178093
0.0875 0.63 0.0075 0.00452891 0.294486 0.00167742
0.0925 0.63 0.0075 -0.00116255 0.254884 0.00284596
0.0975 0.63 0.0075 -0.00438304 0.086098 0.0342378
0.0025 0.63 0.0125 0.00660097 0.124104 -0.00192957
0.0075 0.63 0.0125 0.00313066 0.28557 -0.00388503
0.0125 0.63 0.0125 -0.00144388 0.3378 -0.00177439
0.0175 0.63 0.0125 0.00234359 0.356393 -0.00232065
0.0225 0.63 0.0125 0.000629474 0.374214 -0.00374075
0.0275 0.63 0.0125 0.00214888 0.381569 -0.0042247
0.0325 0.63 0.0125 0.00244773 0.381402 -0.0039021
0.0375 0.63 0.0125 0.00304182 0.373282 -0.00345994
0.0425 0.63 0.0125 0.00338811 0.362231 -0.00312231
0.0475 0.63 0.0125 0.00376069 0.351652 -0.0030786
0.0525 0.63 0.0125 0.0037907 0.342453 -0.00326195
0.0575 0.63 0.0125 0.00407553 0.333319 -0.00364069
0.0625 0.63 0.0125 0.00458125 0.323756 -0.00398952
0.0675 0.63 0.0125 0.00494814 0.315475 -0.00411561
0.0725 0.63 0.0125 0.00429504 0.309422 -0.00393997
0.0775 0.63 0.0125 0.00408804 0.306385 -0.00338285
0.0825 0.63 0.0125 0.0015944 0.299941 -0.00198907
0.0875 0.63 0.0125 0.00312251 0.294346 -0.00231851
0.0925 0.63 0.0125 -0.00383741 0.256 -0.00436274
0.0975 0.63 0.0125 -0.0071327 0.090541 -0.00031352
0.0025 0.63 0.0175 0.0213443 0.0100071 0.00426379
0.0075 0.63 0.0175 0.00726158 0.156267 -0.00103004
0.0125 0.63 0.0175 -0.0103847 0.209591 0.000561002
0.0175 0.63 0.0175 0.00100181 0.213773 -0.000201916
0.0225 0.63 0.0175 0.00456528 0.21216 -0.00105381
0.0275 0.63 0.0175 0.00694482 0.200425 -0.00124379
0.0325 0.63 0.0175 0.00768761 0.186786 -0.0011808
0.0375 0.63 0.0175 0.00831005 0.173884 -0.00142547
0.0425 0.63 0.0175 0.00848021 0.163146 -0.00158307
0.0475 0.63 0.0175 0.00928464 0.153891 -0.00171507
0.0525 0.63 0.0175 0.00990112 0.145838 -0.00177951
0.0575 0.63 0.0175 0.0104117 0.137341 -0.00195184
0.0625 0.63 0.0175 0.0100409 0.12802 -0.00215688
0.0675 0.63 0.0175 0.0087626 0.121711 -0.00220443
0.0725 0.63 0.0175 0.0061912 0.121136 -0.00208062
0.0775 0.63 0.0175 0.00418539 0.128036 -0.00164513
0.0825 0.63 0.0175 0.00337233 0.137222 -0.000286771
0.0875 0.63 0.0175 0.0101841 0.148927 -0.000218441
0.0925 0.63 0.0175 -0.0104572 0.120118 -0.00069155
0.0975 0.63 0.0175 -0.0228586 -0.003992 0.00364657
