# alphaMean.air  FACE_DATA 80
#  x  y  z  alphaMean.air
0.0025 0.08 0.0025 0.0109787
0.0075 0.08 0.0025 0.00852703
0.0125 0.08 0.0025 0.00712456
0.0175 0.08 0.0025 0.00941936
0.0225 0.08 0.0025 0.01689
0.0275 0.08 0.0025 0.0272095
0.0325 0.08 0.0025 0.0350258
0.0375 0.08 0.0025 0.0343911
0.0425 0.08 0.0025 0.0312219
0.0475 0.08 0.0025 0.0300212
0.0525 0.08 0.0025 0.0306596
0.0575 0.08 0.0025 0.0325363
0.0625 0.08 0.0025 0.0345277
0.0675 0.08 0.0025 0.0333676
0.0725 0.08 0.0025 0.0243013
0.0775 0.08 0.0025 0.0142381
0.0825 0.08 0.0025 0.00767555
0.0875 0.08 0.0025 0.00642524
0.0925 0.08 0.0025 0.00753513
0.0975 0.08 0.0025 0.00998998
0.0025 0.08 0.0075 0.0113949
0.0075 0.08 0.0075 0.0175432
0.0125 0.08 0.0075 0.00970232
0.0175 0.08 0.0075 0.00883208
0.0225 0.08 0.0075 0.0180537
0.0275 0.08 0.0075 0.0327274
0.0325 0.08 0.0075 0.0447353
0.0375 0.08 0.0075 0.0450348
0.0425 0.08 0.0075 0.0416657
0.0475 0.08 0.0075 0.040059
0.0525 0.08 0.0075 0.0406687
0.0575 0.08 0.0075 0.0426299
0.0625 0.08 0.0075 0.0447753
0.0675 0.08 0.0075 0.041977
0.0725 0.08 0.0075 0.0293634
0.0775 0.08 0.0075 0.0157929
0.0825 0.08 0.0075 0.00877717
0.0875 0.08 0.0075 0.0118737
0.0925 0.08 0.0075 0.0196768
0.0975 0.08 0.0075 0.0122079
0.0025 0.08 0.0125 0.0123267
0.0075 0.08 0.0125 0.0183414
0.0125 0.08 0.0125 0.00940461
0.0175 0.08 0.0125 0.00899053
0.0225 0.08 0.0125 0.020373
0.0275 0.08 0.0125 0.0349376
0.0325 0.08 0.0125 0.0465943
0.0375 0.08 0.0125 0.0460184
0.0425 0.08 0.0125 0.0425804
0.0475 0.08 0.0125 0.0410265
0.0525 0.08 0.0125 0.0411246
0.0575 0.08 0.0125 0.0428771
0.0625 0.08 0.0125 0.0458905
0.0675 0.08 0.0125 0.0425693
0.0725 0.08 0.0125 0.0291984
0.0775 0.08 0.0125 0.0152281
0.0825 0.08 0.0125 0.00794404
0.0875 0.08 0.0125 0.0104761
0.0925 0.08 0.0125 0.0193777
0.0975 0.08 0.0125 0.012853
0.0025 0.08 0.0175 0.0122426
0.0075 0.08 0.0175 0.00912218
0.0125 0.08 0.0175 0.00683868
0.0175 0.08 0.0175 0.00916399
0.0225 0.08 0.0175 0.0183173
0.0275 0.08 0.0175 0.029575
0.0325 0.08 0.0175 0.0383554
0.0375 0.08 0.0175 0.03607
0.0425 0.08 0.0175 0.0327806
0.0475 0.08 0.0175 0.0312191
0.0525 0.08 0.0175 0.0312443
0.0575 0.08 0.0175 0.0335855
0.0625 0.08 0.0175 0.0364531
0.0675 0.08 0.0175 0.0343969
0.0725 0.08 0.0175 0.024443
0.0775 0.08 0.0175 0.0140163
0.0825 0.08 0.0175 0.00728202
0.0875 0.08 0.0175 0.00642561
0.0925 0.08 0.0175 0.00904164
0.0975 0.08 0.0175 0.0125081
