# alphaMean.air  FACE_DATA 80
#  x  y  z  alphaMean.air
0.0025 0.63 0.0025 0.0428557
0.0075 0.63 0.0025 0.041704
0.0125 0.63 0.0025 0.0419534
0.0175 0.63 0.0025 0.0431304
0.0225 0.63 0.0025 0.043846
0.0275 0.63 0.0025 0.0445115
0.0325 0.63 0.0025 0.0449044
0.0375 0.63 0.0025 0.0451272
0.0425 0.63 0.0025 0.0453673
0.0475 0.63 0.0025 0.0455526
0.0525 0.63 0.0025 0.0457018
0.0575 0.63 0.0025 0.0457149
0.0625 0.63 0.0025 0.0454668
0.0675 0.63 0.0025 0.0450168
0.0725 0.63 0.0025 0.0444618
0.0775 0.63 0.0025 0.0436643
0.0825 0.63 0.0025 0.0429856
0.0875 0.63 0.0025 0.0415833
0.0925 0.63 0.0025 0.0409892
0.0975 0.63 0.0025 0.0423496
0.0025 0.63 0.0075 0.0388786
0.0075 0.63 0.0075 0.0545916
0.0125 0.63 0.0075 0.0468329
0.0175 0.63 0.0075 0.0449331
0.0225 0.63 0.0075 0.0455402
0.0275 0.63 0.0075 0.0444242
0.0325 0.63 0.0075 0.0439259
0.0375 0.63 0.0075 0.0435159
0.0425 0.63 0.0075 0.0431347
0.0475 0.63 0.0075 0.0428507
0.0525 0.63 0.0075 0.0428001
0.0575 0.63 0.0075 0.0429906
0.0625 0.63 0.0075 0.0432715
0.0675 0.63 0.0075 0.0435715
0.0725 0.63 0.0075 0.0440718
0.0775 0.63 0.0075 0.045368
0.0825 0.63 0.0075 0.0448976
0.0875 0.63 0.0075 0.045833
0.0925 0.63 0.0075 0.0533904
0.0975 0.63 0.0075 0.0388974
0.0025 0.63 0.0125 0.0390948
0.0075 0.63 0.0125 0.0542625
0.0125 0.63 0.0125 0.0467265
0.0175 0.63 0.0125 0.0448475
0.0225 0.63 0.0125 0.0455138
0.0275 0.63 0.0125 0.0444548
0.0325 0.63 0.0125 0.0440384
0.0375 0.63 0.0125 0.0436757
0.0425 0.63 0.0125 0.0432869
0.0475 0.63 0.0125 0.0429853
0.0525 0.63 0.0125 0.0429298
0.0575 0.63 0.0125 0.0431245
0.0625 0.63 0.0125 0.04341
0.0675 0.63 0.0125 0.0436639
0.0725 0.63 0.0125 0.0441224
0.0775 0.63 0.0125 0.04528
0.0825 0.63 0.0125 0.0448625
0.0875 0.63 0.0125 0.046074
0.0925 0.63 0.0125 0.0534668
0.0975 0.63 0.0125 0.0382205
0.0025 0.63 0.0175 0.0429441
0.0075 0.63 0.0175 0.0420458
0.0125 0.63 0.0175 0.0419272
0.0175 0.63 0.0175 0.0433614
0.0225 0.63 0.0175 0.0437775
0.0275 0.63 0.0175 0.0444825
0.0325 0.63 0.0175 0.0448823
0.0375 0.63 0.0175 0.0452209
0.0425 0.63 0.0175 0.0454505
0.0475 0.63 0.0175 0.0455811
0.0525 0.63 0.0175 0.0455855
0.0575 0.63 0.0175 0.0454171
0.0625 0.63 0.0175 0.0451439
0.0675 0.63 0.0175 0.0446906
0.0725 0.63 0.0175 0.0441309
0.0775 0.63 0.0175 0.0433609
0.0825 0.63 0.0175 0.0428105
0.0875 0.63 0.0175 0.041412
0.0925 0.63 0.0175 0.0406637
0.0975 0.63 0.0175 0.0424436
