# alphaMean.water  FACE_DATA 80
#  x  y  z  alphaMean.water
0.0025 0.08 0.0025 0.989021
0.0075 0.08 0.0025 0.991473
0.0125 0.08 0.0025 0.992875
0.0175 0.08 0.0025 0.990581
0.0225 0.08 0.0025 0.98311
0.0275 0.08 0.0025 0.97279
0.0325 0.08 0.0025 0.964974
0.0375 0.08 0.0025 0.965609
0.0425 0.08 0.0025 0.968778
0.0475 0.08 0.0025 0.969979
0.0525 0.08 0.0025 0.96934
0.0575 0.08 0.0025 0.967464
0.0625 0.08 0.0025 0.965472
0.0675 0.08 0.0025 0.966632
0.0725 0.08 0.0025 0.975699
0.0775 0.08 0.0025 0.985762
0.0825 0.08 0.0025 0.992324
0.0875 0.08 0.0025 0.993575
0.0925 0.08 0.0025 0.992465
0.0975 0.08 0.0025 0.99001
0.0025 0.08 0.0075 0.988605
0.0075 0.08 0.0075 0.982457
0.0125 0.08 0.0075 0.990298
0.0175 0.08 0.0075 0.991168
0.0225 0.08 0.0075 0.981946
0.0275 0.08 0.0075 0.967273
0.0325 0.08 0.0075 0.955265
0.0375 0.08 0.0075 0.954965
0.0425 0.08 0.0075 0.958334
0.0475 0.08 0.0075 0.959941
0.0525 0.08 0.0075 0.959331
0.0575 0.08 0.0075 0.95737
0.0625 0.08 0.0075 0.955225
0.0675 0.08 0.0075 0.958023
0.0725 0.08 0.0075 0.970637
0.0775 0.08 0.0075 0.984207
0.0825 0.08 0.0075 0.991223
0.0875 0.08 0.0075 0.988126
0.0925 0.08 0.0075 0.980323
0.0975 0.08 0.0075 0.987792
0.0025 0.08 0.0125 0.987673
0.0075 0.08 0.0125 0.981659
0.0125 0.08 0.0125 0.990595
0.0175 0.08 0.0125 0.991009
0.0225 0.08 0.0125 0.979627
0.0275 0.08 0.0125 0.965062
0.0325 0.08 0.0125 0.953406
0.0375 0.08 0.0125 0.953982
0.0425 0.08 0.0125 0.95742
0.0475 0.08 0.0125 0.958973
0.0525 0.08 0.0125 0.958875
0.0575 0.08 0.0125 0.957123
0.0625 0.08 0.0125 0.95411
0.0675 0.08 0.0125 0.957431
0.0725 0.08 0.0125 0.970802
0.0775 0.08 0.0125 0.984772
0.0825 0.08 0.0125 0.992056
0.0875 0.08 0.0125 0.989524
0.0925 0.08 0.0125 0.980622
0.0975 0.08 0.0125 0.987147
0.0025 0.08 0.0175 0.987757
0.0075 0.08 0.0175 0.990878
0.0125 0.08 0.0175 0.993161
0.0175 0.08 0.0175 0.990836
0.0225 0.08 0.0175 0.981683
0.0275 0.08 0.0175 0.970425
0.0325 0.08 0.0175 0.961645
0.0375 0.08 0.0175 0.96393
0.0425 0.08 0.0175 0.967219
0.0475 0.08 0.0175 0.968781
0.0525 0.08 0.0175 0.968756
0.0575 0.08 0.0175 0.966414
0.0625 0.08 0.0175 0.963547
0.0675 0.08 0.0175 0.965603
0.0725 0.08 0.0175 0.975557
0.0775 0.08 0.0175 0.985984
0.0825 0.08 0.0175 0.992718
0.0875 0.08 0.0175 0.993574
0.0925 0.08 0.0175 0.990958
0.0975 0.08 0.0175 0.987492
