# alphaMean.water  FACE_DATA 80
#  x  y  z  alphaMean.water
0.0025 0.63 0.0025 0.957144
0.0075 0.63 0.0025 0.958296
0.0125 0.63 0.0025 0.958047
0.0175 0.63 0.0025 0.95687
0.0225 0.63 0.0025 0.956154
0.0275 0.63 0.0025 0.955489
0.0325 0.63 0.0025 0.955096
0.0375 0.63 0.0025 0.954873
0.0425 0.63 0.0025 0.954633
0.0475 0.63 0.0025 0.954447
0.0525 0.63 0.0025 0.954298
0.0575 0.63 0.0025 0.954285
0.0625 0.63 0.0025 0.954533
0.0675 0.63 0.0025 0.954983
0.0725 0.63 0.0025 0.955538
0.0775 0.63 0.0025 0.956336
0.0825 0.63 0.0025 0.957014
0.0875 0.63 0.0025 0.958417
0.0925 0.63 0.0025 0.959011
0.0975 0.63 0.0025 0.95765
0.0025 0.63 0.0075 0.961121
0.0075 0.63 0.0075 0.945408
0.0125 0.63 0.0075 0.953167
0.0175 0.63 0.0075 0.955067
0.0225 0.63 0.0075 0.95446
0.0275 0.63 0.0075 0.955576
0.0325 0.63 0.0075 0.956074
0.0375 0.63 0.0075 0.956484
0.0425 0.63 0.0075 0.956865
0.0475 0.63 0.0075 0.957149
0.0525 0.63 0.0075 0.9572
0.0575 0.63 0.0075 0.957009
0.0625 0.63 0.0075 0.956729
0.0675 0.63 0.0075 0.956428
0.0725 0.63 0.0075 0.955928
0.0775 0.63 0.0075 0.954632
0.0825 0.63 0.0075 0.955102
0.0875 0.63 0.0075 0.954167
0.0925 0.63 0.0075 0.94661
0.0975 0.63 0.0075 0.961103
0.0025 0.63 0.0125 0.960905
0.0075 0.63 0.0125 0.945738
0.0125 0.63 0.0125 0.953274
0.0175 0.63 0.0125 0.955153
0.0225 0.63 0.0125 0.954486
0.0275 0.63 0.0125 0.955545
0.0325 0.63 0.0125 0.955962
0.0375 0.63 0.0125 0.956324
0.0425 0.63 0.0125 0.956713
0.0475 0.63 0.0125 0.957015
0.0525 0.63 0.0125 0.95707
0.0575 0.63 0.0125 0.956875
0.0625 0.63 0.0125 0.95659
0.0675 0.63 0.0125 0.956336
0.0725 0.63 0.0125 0.955878
0.0775 0.63 0.0125 0.95472
0.0825 0.63 0.0125 0.955137
0.0875 0.63 0.0125 0.953926
0.0925 0.63 0.0125 0.946533
0.0975 0.63 0.0125 0.961779
0.0025 0.63 0.0175 0.957056
0.0075 0.63 0.0175 0.957954
0.0125 0.63 0.0175 0.958073
0.0175 0.63 0.0175 0.956639
0.0225 0.63 0.0175 0.956223
0.0275 0.63 0.0175 0.955518
0.0325 0.63 0.0175 0.955118
0.0375 0.63 0.0175 0.954779
0.0425 0.63 0.0175 0.954549
0.0475 0.63 0.0175 0.954419
0.0525 0.63 0.0175 0.954414
0.0575 0.63 0.0175 0.954583
0.0625 0.63 0.0175 0.954856
0.0675 0.63 0.0175 0.955309
0.0725 0.63 0.0175 0.955869
0.0775 0.63 0.0175 0.956639
0.0825 0.63 0.0175 0.957189
0.0875 0.63 0.0175 0.958588
0.0925 0.63 0.0175 0.959336
0.0975 0.63 0.0175 0.957556
