# UMean.water  FACE_DATA 80
#  x  y  z  UMean.water_x  UMean.water_y  UMean.water_z  
0.0025 0.63 0.0025 -0.000195569 -0.0332521 0.000109207
0.0075 0.63 0.0025 -0.000226673 -0.0194811 -9.3459e-06
0.0125 0.63 0.0025 -0.000128231 -0.0145487 -4.38308e-05
0.0175 0.63 0.0025 -1.26779e-05 -0.00941951 6.06705e-06
0.0225 0.63 0.0025 0.000218522 -0.00405625 9.51607e-05
0.0275 0.63 0.0025 0.0005666 0.000824766 0.00020566
0.0325 0.63 0.0025 0.000750975 0.00508833 0.000335875
0.0375 0.63 0.0025 0.000978167 0.00846981 0.000461963
0.0425 0.63 0.0025 0.00124817 0.0114762 0.000558075
0.0475 0.63 0.0025 0.0016429 0.0138719 0.000580889
0.0525 0.63 0.0025 0.00191635 0.0153858 0.000576377
0.0575 0.63 0.0025 0.00216406 0.0158225 0.000512054
0.0625 0.63 0.0025 0.00231412 0.0148122 0.00038407
0.0675 0.63 0.0025 0.00253314 0.0121967 0.000245226
0.0725 0.63 0.0025 0.00252672 0.00857419 5.38455e-05
0.0775 0.63 0.0025 0.00246788 0.00414524 -9.89668e-05
0.0825 0.63 0.0025 0.00220984 -0.000570197 -0.000237374
0.0875 0.63 0.0025 0.0018746 -0.0058373 -0.000338978
0.0925 0.63 0.0025 0.00124162 -0.0100351 -0.000333137
0.0975 0.63 0.0025 0.000505931 -0.0222806 -0.000252755
0.0025 0.63 0.0075 -8.66254e-05 -0.0330067 0.000121583
0.0075 0.63 0.0075 0.000222268 0.0104064 0.000120815
0.0125 0.63 0.0075 0.000328683 0.00602451 1.00042e-05
0.0175 0.63 0.0075 0.000410146 0.00252189 -6.3817e-06
0.0225 0.63 0.0075 0.000536129 0.00307004 4.18182e-05
0.0275 0.63 0.0075 0.000717248 0.00171156 9.34997e-05
0.0325 0.63 0.0075 0.000862456 0.0009526 0.00018323
0.0375 0.63 0.0075 0.00105802 0.000407014 0.000308605
0.0425 0.63 0.0075 0.00125038 6.34834e-05 0.000441916
0.0475 0.63 0.0075 0.00153636 -8.70268e-05 0.00048317
0.0525 0.63 0.0075 0.00178198 0.000283466 0.000451621
0.0575 0.63 0.0075 0.00201016 0.00132082 0.000357462
0.0625 0.63 0.0075 0.00213746 0.00259398 0.000250416
0.0675 0.63 0.0075 0.00226941 0.00379981 0.000129286
0.0725 0.63 0.0075 0.00223834 0.0054978 -6.99383e-06
0.0775 0.63 0.0075 0.00209302 0.00799758 -9.87296e-05
0.0825 0.63 0.0075 0.00176268 0.00790107 -0.000162173
0.0875 0.63 0.0075 0.00150358 0.0103712 -0.00012646
0.0925 0.63 0.0075 0.00109341 0.0159429 -4.01818e-05
0.0975 0.63 0.0075 0.000733193 -0.020967 -2.94578e-05
0.0025 0.63 0.0125 -6.66649e-05 -0.0325743 -0.000114896
0.0075 0.63 0.0125 0.000248495 0.0100583 -0.00021604
0.0125 0.63 0.0125 0.000317692 0.00568644 -0.00015001
0.0175 0.63 0.0125 0.000375358 0.00263081 -0.000157261
0.0225 0.63 0.0125 0.000489997 0.00333211 -0.000230393
0.0275 0.63 0.0125 0.000678003 0.00210282 -0.000282197
0.0325 0.63 0.0125 0.000879013 0.00141788 -0.000298672
0.0375 0.63 0.0125 0.00114154 0.00078834 -0.000232017
0.0425 0.63 0.0125 0.00135192 8.35497e-05 -0.000133615
0.0475 0.63 0.0125 0.00160407 -0.000472293 -8.85225e-05
0.0525 0.63 0.0125 0.00179419 -0.000382778 -0.000113508
0.0575 0.63 0.0125 0.00198847 0.000544271 -0.000189446
0.0625 0.63 0.0125 0.00209765 0.00193274 -0.000247295
0.0675 0.63 0.0125 0.00222869 0.00323241 -0.000259115
0.0725 0.63 0.0125 0.00222138 0.0048964 -0.000223966
0.0775 0.63 0.0125 0.00208455 0.00732739 -0.000151711
0.0825 0.63 0.0125 0.00174092 0.00750669 -5.69064e-05
0.0875 0.63 0.0125 0.00144553 0.0104163 -2.23749e-05
0.0925 0.63 0.0125 0.00102099 0.0155924 -7.28381e-05
0.0975 0.63 0.0125 0.000701282 -0.0228456 4.56636e-05
0.0025 0.63 0.0175 -0.000147226 -0.0325487 -9.87518e-05
0.0075 0.63 0.0175 -0.00020321 -0.0182877 -5.16332e-06
0.0125 0.63 0.0175 -0.000160173 -0.0140578 -3.23263e-05
0.0175 0.63 0.0175 -6.9e-05 -0.00838573 -0.000116415
0.0225 0.63 0.0175 0.000158762 -0.0034651 -0.000207842
0.0275 0.63 0.0175 0.000493401 0.00121525 -0.000295063
0.0325 0.63 0.0175 0.000762031 0.00514358 -0.00037061
0.0375 0.63 0.0175 0.00112936 0.00823872 -0.000399406
0.0425 0.63 0.0175 0.00143973 0.010358 -0.00038806
0.0475 0.63 0.0175 0.00177463 0.0116593 -0.000371307
0.0525 0.63 0.0175 0.00197523 0.012269 -0.000399057
0.0575 0.63 0.0175 0.00222069 0.0121383 -0.000436992
0.0625 0.63 0.0175 0.00239323 0.0113369 -0.000420353
0.0675 0.63 0.0175 0.00259495 0.00922042 -0.00036654
0.0725 0.63 0.0175 0.00256581 0.00591917 -0.000240759
0.0775 0.63 0.0175 0.00243962 0.00191184 -8.844e-05
0.0825 0.63 0.0175 0.00210206 -0.00230836 8.07161e-05
0.0875 0.63 0.0175 0.00168242 -0.00733106 0.000255514
0.0925 0.63 0.0175 0.00104416 -0.0117739 0.00027081
0.0975 0.63 0.0175 0.000372825 -0.0226787 0.000247338
