# UMean.air  FACE_DATA 80
#  x  y  z  UMean.air_x  UMean.air_y  UMean.air_z  
0.0025 0.63 0.0025 -0.000726722 0.190656 0.000281441
0.0075 0.63 0.0025 -0.00167843 0.204474 0.000421721
0.0125 0.63 0.0025 -0.0017199 0.209442 -9.83153e-05
0.0175 0.63 0.0025 -0.00140327 0.21457 -4.11707e-05
0.0225 0.63 0.0025 -0.00118702 0.219948 0.000249388
0.0275 0.63 0.0025 -0.00073264 0.224826 0.000277147
0.0325 0.63 0.0025 -0.000383927 0.229097 0.000428093
0.0375 0.63 0.0025 4.9969e-06 0.232529 0.000629977
0.0425 0.63 0.0025 0.000471553 0.235583 0.000732153
0.0475 0.63 0.0025 0.00115628 0.237961 0.000704613
0.0525 0.63 0.0025 0.00176998 0.239429 0.000715109
0.0575 0.63 0.0025 0.00239317 0.239831 0.00069132
0.0625 0.63 0.0025 0.00293184 0.238802 0.000561964
0.0675 0.63 0.0025 0.00352883 0.236156 0.000385159
0.0725 0.63 0.0025 0.00378088 0.232469 0.00011937
0.0775 0.63 0.0025 0.00385483 0.227994 1.45357e-05
0.0825 0.63 0.0025 0.0036088 0.223248 -0.000375907
0.0875 0.63 0.0025 0.00346763 0.217968 -0.000609539
0.0925 0.63 0.0025 0.00272133 0.213708 -0.000143021
0.0975 0.63 0.0025 0.00105156 0.201426 -0.000151856
0.0025 0.63 0.0075 0.000103266 0.19101 0.000264291
0.0075 0.63 0.0075 0.000408189 0.233961 0.000562332
0.0125 0.63 0.0075 0.000622645 0.229849 -2.45695e-05
0.0175 0.63 0.0075 0.000844885 0.226412 -8.20518e-05
0.0225 0.63 0.0075 0.000777647 0.226924 0.00013802
0.0275 0.63 0.0075 0.000984366 0.225591 8.3983e-05
0.0325 0.63 0.0075 0.00112754 0.224837 0.000191251
0.0375 0.63 0.0075 0.00125366 0.224309 0.000435881
0.0425 0.63 0.0075 0.0013789 0.223993 0.000629502
0.0475 0.63 0.0075 0.00157036 0.223858 0.000681282
0.0525 0.63 0.0075 0.00167555 0.224214 0.000698904
0.0575 0.63 0.0075 0.00178195 0.225227 0.000654651
0.0625 0.63 0.0075 0.00181828 0.226486 0.000534364
0.0675 0.63 0.0075 0.00186487 0.227679 0.000339266
0.0725 0.63 0.0075 0.00179882 0.22935 9.33984e-05
0.0775 0.63 0.0075 0.00172632 0.23179 2.38474e-05
0.0825 0.63 0.0075 0.00127969 0.231725 -0.000276361
0.0875 0.63 0.0075 0.00106994 0.234166 -0.000355901
0.0925 0.63 0.0075 0.00101127 0.239431 0.000178339
0.0975 0.63 0.0075 0.000758265 0.202869 0.000113453
0.0025 0.63 0.0125 9.28666e-05 0.191437 -0.000379617
0.0075 0.63 0.0125 0.000388543 0.233637 -0.000609139
0.0125 0.63 0.0125 0.000561263 0.22952 -2.15786e-05
0.0175 0.63 0.0125 0.00075185 0.22653 -8.47805e-05
0.0225 0.63 0.0125 0.000681949 0.227202 -0.000453591
0.0275 0.63 0.0125 0.000888591 0.226008 -0.000456848
0.0325 0.63 0.0125 0.00112171 0.225326 -0.00050201
0.0375 0.63 0.0125 0.00139215 0.224689 -0.000427193
0.0425 0.63 0.0125 0.00158659 0.223981 -0.000265883
0.0475 0.63 0.0125 0.00173503 0.223428 -9.86799e-05
0.0525 0.63 0.0125 0.00173755 0.223511 -0.000132286
0.0575 0.63 0.0125 0.00176171 0.224429 -0.000264037
0.0625 0.63 0.0125 0.00176795 0.225814 -0.000309078
0.0675 0.63 0.0125 0.00183583 0.22711 -0.000257762
0.0725 0.63 0.0125 0.00180132 0.228754 -0.000205204
0.0775 0.63 0.0125 0.00169534 0.231131 -0.000190679
0.0825 0.63 0.0125 0.00123295 0.231335 0.000156335
0.0875 0.63 0.0125 0.00101838 0.234205 0.000248206
0.0925 0.63 0.0125 0.000892829 0.239085 -0.000319119
0.0975 0.63 0.0125 0.000676714 0.201028 3.51554e-05
0.0025 0.63 0.0175 -0.000674778 0.191364 -0.000338466
0.0075 0.63 0.0175 -0.00171601 0.205666 -0.000368301
0.0125 0.63 0.0175 -0.00181759 0.209952 8.90703e-05
0.0175 0.63 0.0175 -0.00143679 0.215631 -2.79225e-05
0.0225 0.63 0.0175 -0.00117606 0.220578 -0.00038418
0.0275 0.63 0.0175 -0.000715333 0.225266 -0.000402608
0.0325 0.63 0.0175 -0.000235049 0.229201 -0.000512735
0.0375 0.63 0.0175 0.000392992 0.232289 -0.000575432
0.0425 0.63 0.0175 0.000968823 0.234379 -0.000545758
0.0475 0.63 0.0175 0.00158804 0.235645 -0.000460409
0.0525 0.63 0.0175 0.0020366 0.236254 -0.000514476
0.0575 0.63 0.0175 0.00249461 0.236148 -0.000607878
0.0625 0.63 0.0175 0.00292283 0.23535 -0.000579123
0.0675 0.63 0.0175 0.00346426 0.233208 -0.000439522
0.0725 0.63 0.0175 0.00370444 0.229857 -0.000266341
0.0775 0.63 0.0175 0.00372437 0.225805 -0.000140855
0.0825 0.63 0.0175 0.00345201 0.221539 0.000260949
0.0875 0.63 0.0175 0.00325001 0.216489 0.000497203
0.0925 0.63 0.0175 0.00247304 0.21201 3.77844e-05
0.0975 0.63 0.0175 0.000894385 0.201076 0.000180557
