# UMean.air  FACE_DATA 80
#  x  y  z  UMean.air_x  UMean.air_y  UMean.air_z  
0.0025 0.08 0.0025 0.00372272 0.0778375 0.00222317
0.0075 0.08 0.0025 0.004352 0.111693 0.00352504
0.0125 0.08 0.0025 0.00570395 0.158889 0.00140893
0.0175 0.08 0.0025 0.00841006 0.204583 -0.00112423
0.0225 0.08 0.0025 0.0112507 0.246551 -0.00300639
0.0275 0.08 0.0025 0.0120073 0.279005 -0.00398702
0.0325 0.08 0.0025 0.012191 0.295099 -0.0055289
0.0375 0.08 0.0025 0.0109792 0.296572 -0.00589114
0.0425 0.08 0.0025 0.00675097 0.296659 -0.00416654
0.0475 0.08 0.0025 0.00298867 0.301602 -0.00323239
0.0525 0.08 0.0025 -0.000642411 0.304407 -0.00366126
0.0575 0.08 0.0025 -0.00561354 0.304658 -0.00509619
0.0625 0.08 0.0025 -0.00903494 0.306391 -0.00627631
0.0675 0.08 0.0025 -0.0102997 0.30229 -0.00556344
0.0725 0.08 0.0025 -0.00987237 0.284198 -0.00305629
0.0775 0.08 0.0025 -0.00747795 0.249691 -0.00105719
0.0825 0.08 0.0025 -0.00516533 0.204637 0.000658128
0.0875 0.08 0.0025 -0.00299903 0.153546 0.00292972
0.0925 0.08 0.0025 -0.00275274 0.100221 0.0054377
0.0975 0.08 0.0025 -0.0039159 0.0605752 0.00172771
0.0025 0.08 0.0075 0.00698577 0.0916992 0.0042592
0.0075 0.08 0.0075 0.00877468 0.129191 0.00485266
0.0125 0.08 0.0075 0.00558789 0.168959 0.0021579
0.0175 0.08 0.0075 0.00525905 0.215206 -0.000562188
0.0225 0.08 0.0075 0.00586248 0.262276 -0.00173718
0.0275 0.08 0.0075 0.00827158 0.299823 -0.0024595
0.0325 0.08 0.0075 0.0113845 0.321466 -0.00361148
0.0375 0.08 0.0075 0.0128007 0.326937 -0.0027516
0.0425 0.08 0.0075 0.00976621 0.325775 -0.000126291
0.0475 0.08 0.0075 0.00527533 0.328025 0.000365093
0.0525 0.08 0.0075 -0.000619769 0.329305 -0.000946064
0.0575 0.08 0.0075 -0.00683874 0.329491 -0.00297137
0.0625 0.08 0.0075 -0.0108591 0.330173 -0.00476374
0.0675 0.08 0.0075 -0.0109026 0.321901 -0.00397855
0.0725 0.08 0.0075 -0.00880594 0.298729 -0.000564791
0.0775 0.08 0.0075 -0.00618829 0.25953 0.00193253
0.0825 0.08 0.0075 -0.00453356 0.212093 0.00354496
0.0875 0.08 0.0075 -0.00370668 0.1641 0.00598322
0.0925 0.08 0.0075 -0.00721836 0.122792 0.00866428
0.0975 0.08 0.0075 -0.00579625 0.0816679 0.00587951
0.0025 0.08 0.0125 0.00643159 0.0891401 -0.00416585
0.0075 0.08 0.0125 0.0077213 0.128966 -0.00710164
0.0125 0.08 0.0125 0.00348326 0.172599 -0.00654288
0.0175 0.08 0.0125 0.00270225 0.222182 -0.00434179
0.0225 0.08 0.0125 0.00359223 0.270195 -0.00120512
0.0275 0.08 0.0125 0.00606444 0.309173 0.00150385
0.0325 0.08 0.0125 0.0101815 0.331291 0.00472371
0.0375 0.08 0.0125 0.012213 0.335098 0.00620669
0.0425 0.08 0.0125 0.00877904 0.330176 0.00495585
0.0475 0.08 0.0125 0.00311972 0.329217 0.00359339
0.0525 0.08 0.0125 -0.00371683 0.328917 0.00295915
0.0575 0.08 0.0125 -0.0106379 0.328529 0.00296858
0.0625 0.08 0.0125 -0.0146481 0.329467 0.00336902
0.0675 0.08 0.0125 -0.0132507 0.320664 0.00284284
0.0725 0.08 0.0125 -0.0103298 0.294855 0.00241089
0.0775 0.08 0.0125 -0.00736106 0.25272 0.00149901
0.0825 0.08 0.0125 -0.00567632 0.203863 -0.000878811
0.0875 0.08 0.0125 -0.0053895 0.157103 -0.00286501
0.0925 0.08 0.0125 -0.00921969 0.119484 -0.00267681
0.0975 0.08 0.0125 -0.0069903 0.083888 7.39056e-05
0.0025 0.08 0.0175 0.00242998 0.075161 -0.00253174
0.0075 0.08 0.0175 0.00138786 0.115632 -0.00480887
0.0125 0.08 0.0175 0.000991974 0.168204 -0.00283126
0.0175 0.08 0.0175 0.00189938 0.218393 0.000164333
0.0225 0.08 0.0175 0.00386822 0.26393 0.00269287
0.0275 0.08 0.0175 0.00618803 0.299363 0.00432902
0.0325 0.08 0.0175 0.00941473 0.315485 0.00656391
0.0375 0.08 0.0175 0.0113177 0.314476 0.00704126
0.0425 0.08 0.0175 0.00832098 0.308759 0.00548136
0.0475 0.08 0.0175 0.00292696 0.306023 0.00456448
0.0525 0.08 0.0175 -0.00418303 0.305461 0.00436607
0.0575 0.08 0.0175 -0.0111818 0.305681 0.00483827
0.0625 0.08 0.0175 -0.01564 0.307345 0.00559592
0.0675 0.08 0.0175 -0.0150473 0.300832 0.00487949
0.0725 0.08 0.0175 -0.0135385 0.275495 0.00372529
0.0775 0.08 0.0175 -0.0111901 0.235499 0.00245323
0.0825 0.08 0.0175 -0.00817579 0.188548 6.18883e-05
0.0875 0.08 0.0175 -0.0072619 0.138064 -0.00200671
0.0925 0.08 0.0175 -0.00777818 0.0935977 -0.00257117
0.0975 0.08 0.0175 -0.00583891 0.0637274 0.000314236
