# UMean.water  FACE_DATA 80
#  x  y  z  UMean.water_x  UMean.water_y  UMean.water_z  
0.0025 0.08 0.0025 0.00420859 -0.156788 0.000914614
0.0075 0.08 0.0025 0.00812996 -0.122665 0.00129501
0.0125 0.08 0.0025 0.0114806 -0.0750484 0.000408896
0.0175 0.08 0.0025 0.0130938 -0.0284792 -0.00051348
0.0225 0.08 0.0025 0.0135329 0.0132068 -0.00128508
0.0275 0.08 0.0025 0.0117115 0.0464749 -0.00131163
0.0325 0.08 0.0025 0.0094622 0.0630158 -0.00122771
0.0375 0.08 0.0025 0.00742035 0.0644088 -0.00100239
0.0425 0.08 0.0025 0.00474379 0.0662411 -0.000677415
0.0475 0.08 0.0025 0.00245345 0.0709775 -0.0004679
0.0525 0.08 0.0025 0.00045478 0.0743834 -0.000687463
0.0575 0.08 0.0025 -0.00232414 0.074944 -0.00146347
0.0625 0.08 0.0025 -0.00455381 0.0746729 -0.00174807
0.0675 0.08 0.0025 -0.00695781 0.0701763 -0.00140007
0.0725 0.08 0.0025 -0.00980519 0.0502638 -0.000550227
0.0775 0.08 0.0025 -0.0110995 0.0142341 0.000171765
0.0825 0.08 0.0025 -0.0117157 -0.0297194 0.000755268
0.0875 0.08 0.0025 -0.00983879 -0.0810757 0.00136556
0.0925 0.08 0.0025 -0.00653902 -0.134992 0.00258801
0.0975 0.08 0.0025 -0.00420549 -0.174522 0.000853372
0.0025 0.08 0.0075 0.00490803 -0.14201 0.0027511
0.0075 0.08 0.0075 0.0108904 -0.104613 0.00288299
0.0125 0.08 0.0075 0.0141379 -0.06422 0.00166682
0.0175 0.08 0.0075 0.014491 -0.0179857 0.000594566
0.0225 0.08 0.0075 0.0130233 0.0286198 0.000567041
0.0275 0.08 0.0075 0.0114703 0.0667414 0.000863326
0.0325 0.08 0.0075 0.0105142 0.0883603 0.00116144
0.0375 0.08 0.0075 0.00960565 0.0941128 0.00236383
0.0425 0.08 0.0075 0.00722685 0.0958424 0.00369618
0.0475 0.08 0.0075 0.00428596 0.0987492 0.00362572
0.0525 0.08 0.0075 0.000255313 0.100378 0.00232676
0.0575 0.08 0.0075 -0.00401719 0.100055 0.00082951
0.0625 0.08 0.0075 -0.00741128 0.0979272 -0.00020353
0.0675 0.08 0.0075 -0.0100206 0.0885455 0.000112827
0.0725 0.08 0.0075 -0.0124812 0.0634835 0.0014823
0.0775 0.08 0.0075 -0.0138972 0.0239797 0.00254735
0.0825 0.08 0.0075 -0.0143744 -0.022858 0.00289086
0.0875 0.08 0.0075 -0.0123732 -0.0705764 0.00385949
0.0925 0.08 0.0075 -0.00884319 -0.112546 0.00547713
0.0975 0.08 0.0075 -0.0033469 -0.153669 0.00521628
0.0025 0.08 0.0125 0.00453271 -0.144291 -0.00325256
0.0075 0.08 0.0125 0.0104037 -0.104106 -0.00401146
0.0125 0.08 0.0125 0.0130664 -0.0607976 -0.00404749
0.0175 0.08 0.0125 0.012557 -0.0115697 -0.00322631
0.0225 0.08 0.0125 0.0107977 0.0370816 -0.00126848
0.0275 0.08 0.0125 0.0090878 0.0765084 0.000523485
0.0325 0.08 0.0125 0.00867491 0.098393 0.00188288
0.0375 0.08 0.0125 0.00802869 0.102321 0.00209183
0.0425 0.08 0.0125 0.00539828 0.101117 0.00128414
0.0475 0.08 0.0125 0.00174371 0.100538 9.41333e-05
0.0525 0.08 0.0125 -0.00287279 0.100261 -0.000687122
0.0575 0.08 0.0125 -0.00790824 0.0992836 -0.000969969
0.0625 0.08 0.0125 -0.0117858 0.0970408 -0.0007197
0.0675 0.08 0.0125 -0.0133486 0.0864282 7.57457e-05
0.0725 0.08 0.0125 -0.0148608 0.0592107 0.000558228
0.0775 0.08 0.0125 -0.0155238 0.0176388 -0.000111237
0.0825 0.08 0.0125 -0.0157045 -0.0306498 -0.00182249
0.0875 0.08 0.0125 -0.0138811 -0.0777072 -0.00192776
0.0925 0.08 0.0125 -0.010543 -0.114988 -0.000560824
0.0975 0.08 0.0125 -0.0044513 -0.151607 0.00122842
0.0025 0.08 0.0175 0.00345979 -0.158694 -0.00117209
0.0075 0.08 0.0175 0.00605697 -0.118062 -0.00188307
0.0125 0.08 0.0175 0.00808338 -0.0657403 -0.00104273
0.0175 0.08 0.0175 0.00776256 -0.0155298 0.000322445
0.0225 0.08 0.0175 0.00679635 0.03152 0.0018452
0.0275 0.08 0.0175 0.00573866 0.0679832 0.0026627
0.0325 0.08 0.0175 0.00554821 0.0839692 0.00307511
0.0375 0.08 0.0175 0.00561875 0.0831171 0.00258662
0.0425 0.08 0.0175 0.00386973 0.0796266 0.00174656
0.0475 0.08 0.0175 0.00109065 0.076817 0.00115003
0.0525 0.08 0.0175 -0.00321787 0.0763436 0.000639143
0.0575 0.08 0.0175 -0.00810647 0.0762744 0.000631826
0.0625 0.08 0.0175 -0.0121599 0.0747859 0.00122079
0.0675 0.08 0.0175 -0.0138117 0.066454 0.00177252
0.0725 0.08 0.0175 -0.0151168 0.0412012 0.00182083
0.0775 0.08 0.0175 -0.0153484 0.00110512 0.000992242
0.0825 0.08 0.0175 -0.0149394 -0.0460945 -0.000508762
0.0875 0.08 0.0175 -0.0138892 -0.0971049 -0.000514622
0.0925 0.08 0.0175 -0.0108373 -0.140963 8.99029e-05
0.0975 0.08 0.0175 -0.00581542 -0.171246 0.00164813
