# alphaMean.air  FACE_DATA 80
#  x  y  z  alphaMean.air
0.0025 0.63 0.0025 0.0439902
0.0075 0.63 0.0025 0.0437077
0.0125 0.63 0.0025 0.0436337
0.0175 0.63 0.0025 0.0439531
0.0225 0.63 0.0025 0.0441367
0.0275 0.63 0.0025 0.0443989
0.0325 0.63 0.0025 0.0446268
0.0375 0.63 0.0025 0.0447933
0.0425 0.63 0.0025 0.0448951
0.0475 0.63 0.0025 0.044934
0.0525 0.63 0.0025 0.0449335
0.0575 0.63 0.0025 0.0448576
0.0625 0.63 0.0025 0.0447475
0.0675 0.63 0.0025 0.0446374
0.0725 0.63 0.0025 0.0444769
0.0775 0.63 0.0025 0.0443728
0.0825 0.63 0.0025 0.0441706
0.0875 0.63 0.0025 0.0438869
0.0925 0.63 0.0025 0.0438206
0.0975 0.63 0.0025 0.0438279
0.0025 0.63 0.0075 0.0431936
0.0075 0.63 0.0075 0.047175
0.0125 0.63 0.0075 0.0453801
0.0175 0.63 0.0075 0.045229
0.0225 0.63 0.0075 0.0451072
0.0275 0.63 0.0075 0.0448598
0.0325 0.63 0.0075 0.0447357
0.0375 0.63 0.0075 0.0446268
0.0425 0.63 0.0075 0.044543
0.0475 0.63 0.0075 0.0444412
0.0525 0.63 0.0075 0.0444164
0.0575 0.63 0.0075 0.0444817
0.0625 0.63 0.0075 0.0445388
0.0675 0.63 0.0075 0.0445715
0.0725 0.63 0.0075 0.0446198
0.0775 0.63 0.0075 0.044638
0.0825 0.63 0.0075 0.0449378
0.0875 0.63 0.0075 0.0446698
0.0925 0.63 0.0075 0.0461756
0.0975 0.63 0.0075 0.0432511
0.0025 0.63 0.0125 0.0432126
0.0075 0.63 0.0125 0.0471209
0.0125 0.63 0.0125 0.0453276
0.0175 0.63 0.0125 0.045193
0.0225 0.63 0.0125 0.0450812
0.0275 0.63 0.0125 0.0448361
0.0325 0.63 0.0125 0.044731
0.0375 0.63 0.0125 0.0446309
0.0425 0.63 0.0125 0.0445509
0.0475 0.63 0.0125 0.0444564
0.0525 0.63 0.0125 0.0444366
0.0575 0.63 0.0125 0.0445147
0.0625 0.63 0.0125 0.0445654
0.0675 0.63 0.0125 0.0446071
0.0725 0.63 0.0125 0.0446501
0.0775 0.63 0.0125 0.0446655
0.0825 0.63 0.0125 0.0449485
0.0875 0.63 0.0125 0.0446782
0.0925 0.63 0.0125 0.0461708
0.0975 0.63 0.0125 0.0432226
0.0025 0.63 0.0175 0.0439811
0.0075 0.63 0.0175 0.0437083
0.0125 0.63 0.0175 0.0436312
0.0175 0.63 0.0175 0.0439478
0.0225 0.63 0.0175 0.0441288
0.0275 0.63 0.0175 0.0443872
0.0325 0.63 0.0175 0.0446202
0.0375 0.63 0.0175 0.0448039
0.0425 0.63 0.0175 0.0449146
0.0475 0.63 0.0175 0.0449456
0.0525 0.63 0.0175 0.0449174
0.0575 0.63 0.0175 0.0448415
0.0625 0.63 0.0175 0.044721
0.0675 0.63 0.0175 0.0446106
0.0725 0.63 0.0175 0.0444516
0.0775 0.63 0.0175 0.0443449
0.0825 0.63 0.0175 0.0441486
0.0875 0.63 0.0175 0.0438594
0.0925 0.63 0.0175 0.0437755
0.0975 0.63 0.0175 0.0438393
