# alphaMean.water  FACE_DATA 80
#  x  y  z  alphaMean.water
0.0025 0.08 0.0025 0.987015
0.0075 0.08 0.0025 0.988703
0.0125 0.08 0.0025 0.992864
0.0175 0.08 0.0025 0.99507
0.0225 0.08 0.0025 0.991392
0.0275 0.08 0.0025 0.981038
0.0325 0.08 0.0025 0.967894
0.0375 0.08 0.0025 0.954998
0.0425 0.08 0.0025 0.948405
0.0475 0.08 0.0025 0.94977
0.0525 0.08 0.0025 0.949867
0.0575 0.08 0.0025 0.95047
0.0625 0.08 0.0025 0.958113
0.0675 0.08 0.0025 0.970199
0.0725 0.08 0.0025 0.982493
0.0775 0.08 0.0025 0.990743
0.0825 0.08 0.0025 0.993153
0.0875 0.08 0.0025 0.991253
0.0925 0.08 0.0025 0.988052
0.0975 0.08 0.0025 0.986257
0.0025 0.08 0.0075 0.984937
0.0075 0.08 0.0075 0.983885
0.0125 0.08 0.0075 0.990258
0.0175 0.08 0.0075 0.994107
0.0225 0.08 0.0075 0.990955
0.0275 0.08 0.0075 0.981604
0.0325 0.08 0.0075 0.969264
0.0375 0.08 0.0075 0.957463
0.0425 0.08 0.0075 0.949234
0.0475 0.08 0.0075 0.946465
0.0525 0.08 0.0075 0.947427
0.0575 0.08 0.0075 0.951453
0.0625 0.08 0.0075 0.960226
0.0675 0.08 0.0075 0.971399
0.0725 0.08 0.0075 0.98275
0.0775 0.08 0.0075 0.990686
0.0825 0.08 0.0075 0.992773
0.0875 0.08 0.0075 0.989229
0.0925 0.08 0.0075 0.983679
0.0975 0.08 0.0075 0.984894
0.0025 0.08 0.0125 0.9844
0.0075 0.08 0.0125 0.982841
0.0125 0.08 0.0125 0.989038
0.0175 0.08 0.0125 0.993272
0.0225 0.08 0.0125 0.990624
0.0275 0.08 0.0125 0.981415
0.0325 0.08 0.0125 0.96893
0.0375 0.08 0.0125 0.956861
0.0425 0.08 0.0125 0.948638
0.0475 0.08 0.0125 0.9459
0.0525 0.08 0.0125 0.946895
0.0575 0.08 0.0125 0.951115
0.0625 0.08 0.0125 0.960133
0.0675 0.08 0.0125 0.971644
0.0725 0.08 0.0125 0.983368
0.0775 0.08 0.0125 0.991602
0.0825 0.08 0.0125 0.993606
0.0875 0.08 0.0125 0.98978
0.0925 0.08 0.0125 0.984161
0.0975 0.08 0.0125 0.985378
0.0025 0.08 0.0175 0.985919
0.0075 0.08 0.0175 0.987031
0.0125 0.08 0.0175 0.990508
0.0175 0.08 0.0175 0.993013
0.0225 0.08 0.0175 0.990257
0.0275 0.08 0.0175 0.980307
0.0325 0.08 0.0175 0.966571
0.0375 0.08 0.0175 0.953914
0.0425 0.08 0.0175 0.947198
0.0475 0.08 0.0175 0.947627
0.0525 0.08 0.0175 0.948103
0.0575 0.08 0.0175 0.950408
0.0625 0.08 0.0175 0.958257
0.0675 0.08 0.0175 0.969948
0.0725 0.08 0.0175 0.982848
0.0775 0.08 0.0175 0.991814
0.0825 0.08 0.0175 0.994382
0.0875 0.08 0.0175 0.991828
0.0925 0.08 0.0175 0.988161
0.0975 0.08 0.0175 0.986716
