# alphaMean.air  FACE_DATA 80
#  x  y  z  alphaMean.air
0.0025 0.08 0.0025 0.0129846
0.0075 0.08 0.0025 0.0112974
0.0125 0.08 0.0025 0.00713598
0.0175 0.08 0.0025 0.0049304
0.0225 0.08 0.0025 0.00860832
0.0275 0.08 0.0025 0.0189616
0.0325 0.08 0.0025 0.0321055
0.0375 0.08 0.0025 0.0450018
0.0425 0.08 0.0025 0.051595
0.0475 0.08 0.0025 0.0502302
0.0525 0.08 0.0025 0.0501332
0.0575 0.08 0.0025 0.0495296
0.0625 0.08 0.0025 0.041887
0.0675 0.08 0.0025 0.0298013
0.0725 0.08 0.0025 0.0175068
0.0775 0.08 0.0025 0.00925676
0.0825 0.08 0.0025 0.00684712
0.0875 0.08 0.0025 0.00874696
0.0925 0.08 0.0025 0.0119484
0.0975 0.08 0.0025 0.0137431
0.0025 0.08 0.0075 0.0150632
0.0075 0.08 0.0075 0.0161149
0.0125 0.08 0.0075 0.00974245
0.0175 0.08 0.0075 0.00589253
0.0225 0.08 0.0075 0.00904454
0.0275 0.08 0.0075 0.018396
0.0325 0.08 0.0075 0.0307357
0.0375 0.08 0.0075 0.0425365
0.0425 0.08 0.0075 0.050766
0.0475 0.08 0.0075 0.0535349
0.0525 0.08 0.0075 0.0525725
0.0575 0.08 0.0075 0.048547
0.0625 0.08 0.0075 0.0397744
0.0675 0.08 0.0075 0.0286013
0.0725 0.08 0.0075 0.01725
0.0775 0.08 0.0075 0.00931413
0.0825 0.08 0.0075 0.0072271
0.0875 0.08 0.0075 0.0107706
0.0925 0.08 0.0075 0.0163211
0.0975 0.08 0.0075 0.0151057
0.0025 0.08 0.0125 0.0155998
0.0075 0.08 0.0125 0.0171593
0.0125 0.08 0.0125 0.0109622
0.0175 0.08 0.0125 0.00672768
0.0225 0.08 0.0125 0.0093757
0.0275 0.08 0.0125 0.0185845
0.0325 0.08 0.0125 0.0310698
0.0375 0.08 0.0125 0.0431394
0.0425 0.08 0.0125 0.0513622
0.0475 0.08 0.0125 0.0541
0.0525 0.08 0.0125 0.0531054
0.0575 0.08 0.0125 0.0488852
0.0625 0.08 0.0125 0.0398666
0.0675 0.08 0.0125 0.0283559
0.0725 0.08 0.0125 0.0166321
0.0775 0.08 0.0125 0.00839773
0.0825 0.08 0.0125 0.0063935
0.0875 0.08 0.0125 0.0102203
0.0925 0.08 0.0125 0.015839
0.0975 0.08 0.0125 0.014622
0.0025 0.08 0.0175 0.0140815
0.0075 0.08 0.0175 0.0129692
0.0125 0.08 0.0175 0.0094921
0.0175 0.08 0.0175 0.00698698
0.0225 0.08 0.0175 0.00974276
0.0275 0.08 0.0175 0.0196932
0.0325 0.08 0.0175 0.0334293
0.0375 0.08 0.0175 0.046086
0.0425 0.08 0.0175 0.0528021
0.0475 0.08 0.0175 0.0523726
0.0525 0.08 0.0175 0.0518969
0.0575 0.08 0.0175 0.0495924
0.0625 0.08 0.0175 0.0417434
0.0675 0.08 0.0175 0.0300519
0.0725 0.08 0.0175 0.0171521
0.0775 0.08 0.0175 0.00818619
0.0825 0.08 0.0175 0.00561802
0.0875 0.08 0.0175 0.0081724
0.0925 0.08 0.0175 0.011839
0.0975 0.08 0.0175 0.0132837
