# alphaMean.water  FACE_DATA 80
#  x  y  z  alphaMean.water
0.0025 0.63 0.0025 0.95601
0.0075 0.63 0.0025 0.956292
0.0125 0.63 0.0025 0.956366
0.0175 0.63 0.0025 0.956047
0.0225 0.63 0.0025 0.955863
0.0275 0.63 0.0025 0.955601
0.0325 0.63 0.0025 0.955373
0.0375 0.63 0.0025 0.955207
0.0425 0.63 0.0025 0.955105
0.0475 0.63 0.0025 0.955066
0.0525 0.63 0.0025 0.955066
0.0575 0.63 0.0025 0.955142
0.0625 0.63 0.0025 0.955253
0.0675 0.63 0.0025 0.955363
0.0725 0.63 0.0025 0.955523
0.0775 0.63 0.0025 0.955627
0.0825 0.63 0.0025 0.955829
0.0875 0.63 0.0025 0.956113
0.0925 0.63 0.0025 0.956179
0.0975 0.63 0.0025 0.956172
0.0025 0.63 0.0075 0.956806
0.0075 0.63 0.0075 0.952825
0.0125 0.63 0.0075 0.95462
0.0175 0.63 0.0075 0.954771
0.0225 0.63 0.0075 0.954893
0.0275 0.63 0.0075 0.95514
0.0325 0.63 0.0075 0.955264
0.0375 0.63 0.0075 0.955373
0.0425 0.63 0.0075 0.955457
0.0475 0.63 0.0075 0.955559
0.0525 0.63 0.0075 0.955584
0.0575 0.63 0.0075 0.955518
0.0625 0.63 0.0075 0.955461
0.0675 0.63 0.0075 0.955428
0.0725 0.63 0.0075 0.95538
0.0775 0.63 0.0075 0.955362
0.0825 0.63 0.0075 0.955062
0.0875 0.63 0.0075 0.95533
0.0925 0.63 0.0075 0.953824
0.0975 0.63 0.0075 0.956749
0.0025 0.63 0.0125 0.956787
0.0075 0.63 0.0125 0.952879
0.0125 0.63 0.0125 0.954672
0.0175 0.63 0.0125 0.954807
0.0225 0.63 0.0125 0.954919
0.0275 0.63 0.0125 0.955164
0.0325 0.63 0.0125 0.955269
0.0375 0.63 0.0125 0.955369
0.0425 0.63 0.0125 0.955449
0.0475 0.63 0.0125 0.955544
0.0525 0.63 0.0125 0.955563
0.0575 0.63 0.0125 0.955485
0.0625 0.63 0.0125 0.955435
0.0675 0.63 0.0125 0.955393
0.0725 0.63 0.0125 0.95535
0.0775 0.63 0.0125 0.955335
0.0825 0.63 0.0125 0.955051
0.0875 0.63 0.0125 0.955322
0.0925 0.63 0.0125 0.953829
0.0975 0.63 0.0125 0.956777
0.0025 0.63 0.0175 0.956019
0.0075 0.63 0.0175 0.956292
0.0125 0.63 0.0175 0.956369
0.0175 0.63 0.0175 0.956052
0.0225 0.63 0.0175 0.955871
0.0275 0.63 0.0175 0.955613
0.0325 0.63 0.0175 0.95538
0.0375 0.63 0.0175 0.955196
0.0425 0.63 0.0175 0.955085
0.0475 0.63 0.0175 0.955054
0.0525 0.63 0.0175 0.955083
0.0575 0.63 0.0175 0.955158
0.0625 0.63 0.0175 0.955279
0.0675 0.63 0.0175 0.955389
0.0725 0.63 0.0175 0.955548
0.0775 0.63 0.0175 0.955655
0.0825 0.63 0.0175 0.955851
0.0875 0.63 0.0175 0.956141
0.0925 0.63 0.0175 0.956225
0.0975 0.63 0.0175 0.956161
