# pMean  FACE_DATA 80
#  x  y  z  pMean
0.0025 0.08 0.0025 108557
0.0075 0.08 0.0025 108557
0.0125 0.08 0.0025 108557
0.0175 0.08 0.0025 108557
0.0225 0.08 0.0025 108557
0.0275 0.08 0.0025 108556
0.0325 0.08 0.0025 108555
0.0375 0.08 0.0025 108553
0.0425 0.08 0.0025 108552
0.0475 0.08 0.0025 108551
0.0525 0.08 0.0025 108551
0.0575 0.08 0.0025 108552
0.0625 0.08 0.0025 108553
0.0675 0.08 0.0025 108554
0.0725 0.08 0.0025 108556
0.0775 0.08 0.0025 108556
0.0825 0.08 0.0025 108557
0.0875 0.08 0.0025 108557
0.0925 0.08 0.0025 108557
0.0975 0.08 0.0025 108557
0.0025 0.08 0.0075 108557
0.0075 0.08 0.0075 108557
0.0125 0.08 0.0075 108557
0.0175 0.08 0.0075 108557
0.0225 0.08 0.0075 108557
0.0275 0.08 0.0075 108556
0.0325 0.08 0.0075 108555
0.0375 0.08 0.0075 108553
0.0425 0.08 0.0075 108552
0.0475 0.08 0.0075 108551
0.0525 0.08 0.0075 108551
0.0575 0.08 0.0075 108552
0.0625 0.08 0.0075 108553
0.0675 0.08 0.0075 108554
0.0725 0.08 0.0075 108556
0.0775 0.08 0.0075 108556
0.0825 0.08 0.0075 108557
0.0875 0.08 0.0075 108557
0.0925 0.08 0.0075 108557
0.0975 0.08 0.0075 108557
0.0025 0.08 0.0125 108557
0.0075 0.08 0.0125 108557
0.0125 0.08 0.0125 108557
0.0175 0.08 0.0125 108557
0.0225 0.08 0.0125 108557
0.0275 0.08 0.0125 108556
0.0325 0.08 0.0125 108555
0.0375 0.08 0.0125 108553
0.0425 0.08 0.0125 108552
0.0475 0.08 0.0125 108551
0.0525 0.08 0.0125 108551
0.0575 0.08 0.0125 108552
0.0625 0.08 0.0125 108553
0.0675 0.08 0.0125 108554
0.0725 0.08 0.0125 108556
0.0775 0.08 0.0125 108556
0.0825 0.08 0.0125 108557
0.0875 0.08 0.0125 108557
0.0925 0.08 0.0125 108557
0.0975 0.08 0.0125 108557
0.0025 0.08 0.0175 108557
0.0075 0.08 0.0175 108557
0.0125 0.08 0.0175 108557
0.0175 0.08 0.0175 108557
0.0225 0.08 0.0175 108557
0.0275 0.08 0.0175 108556
0.0325 0.08 0.0175 108555
0.0375 0.08 0.0175 108553
0.0425 0.08 0.0175 108552
0.0475 0.08 0.0175 108551
0.0525 0.08 0.0175 108551
0.0575 0.08 0.0175 108552
0.0625 0.08 0.0175 108553
0.0675 0.08 0.0175 108554
0.0725 0.08 0.0175 108556
0.0775 0.08 0.0175 108556
0.0825 0.08 0.0175 108557
0.0875 0.08 0.0175 108557
0.0925 0.08 0.0175 108557
0.0975 0.08 0.0175 108557
