# UMean.air  FACE_DATA 80
#  x  y  z  UMean.air_x  UMean.air_y  UMean.air_z  
0.0025 0.63 0.0025 -0.000119747 0.209933 4.93666e-05
0.0075 0.63 0.0025 -0.000568111 0.214539 0.000171453
0.0125 0.63 0.0025 -0.000689042 0.215877 1.06121e-05
0.0175 0.63 0.0025 -0.000669404 0.218233 -1.4431e-05
0.0225 0.63 0.0025 -0.000592787 0.220497 -1.64342e-05
0.0275 0.63 0.0025 -0.000413506 0.222819 -3.95757e-05
0.0325 0.63 0.0025 -0.000201588 0.224957 -4.96835e-06
0.0375 0.63 0.0025 -1.94713e-06 0.226768 8.38101e-06
0.0425 0.63 0.0025 0.000157451 0.228128 -2.86805e-05
0.0475 0.63 0.0025 0.000358816 0.229044 -6.8255e-05
0.0525 0.63 0.0025 0.000544669 0.229431 -9.38452e-05
0.0575 0.63 0.0025 0.000681851 0.229275 -6.25095e-05
0.0625 0.63 0.0025 0.000761927 0.228724 -4.12566e-05
0.0675 0.63 0.0025 0.00086211 0.2278 -4.22383e-05
0.0725 0.63 0.0025 0.000878739 0.226381 -9.75531e-05
0.0775 0.63 0.0025 0.000952377 0.225069 -0.000165163
0.0825 0.63 0.0025 0.000954041 0.22341 -0.000188584
0.0875 0.63 0.0025 0.000884379 0.221588 -0.000189951
0.0925 0.63 0.0025 0.000736379 0.221095 -0.000196486
0.0975 0.63 0.0025 0.000319662 0.217683 2.69652e-05
0.0025 0.63 0.0075 3.28288e-05 0.212275 2.94326e-05
0.0075 0.63 0.0075 0.000148702 0.225502 0.000141475
0.0125 0.63 0.0075 0.000206642 0.224828 -9.58663e-06
0.0175 0.63 0.0075 0.000182534 0.225238 -2.29397e-05
0.0225 0.63 0.0075 0.000317462 0.225694 -5.17871e-06
0.0275 0.63 0.0075 0.000478577 0.225803 -2.46523e-05
0.0325 0.63 0.0075 0.000586124 0.225993 1.03299e-06
0.0375 0.63 0.0075 0.00064019 0.226172 2.08946e-05
0.0425 0.63 0.0075 0.000628701 0.226338 -1.20674e-05
0.0475 0.63 0.0075 0.000572359 0.226391 -4.4976e-05
0.0525 0.63 0.0075 0.000457382 0.22654 -7.42387e-05
0.0575 0.63 0.0075 0.000383597 0.226738 -4.30713e-05
0.0625 0.63 0.0075 0.000388012 0.226655 -7.55315e-06
0.0675 0.63 0.0075 0.000460201 0.226235 -1.63209e-06
0.0725 0.63 0.0075 0.000470036 0.2256 -4.7321e-05
0.0775 0.63 0.0075 0.000441171 0.224919 -9.74352e-05
0.0825 0.63 0.0075 0.000348586 0.22471 -0.000119887
0.0875 0.63 0.0075 0.000111324 0.223785 -0.000108592
0.0925 0.63 0.0075 0.00026646 0.225505 -6.65453e-05
0.0975 0.63 0.0075 0.000425245 0.217174 8.91231e-05
0.0025 0.63 0.0125 3.58174e-06 0.212472 -8.12412e-05
0.0075 0.63 0.0125 0.000115888 0.225541 -0.00017101
0.0125 0.63 0.0125 0.000203241 0.22482 -4.86208e-05
0.0175 0.63 0.0125 0.00017868 0.225258 -2.22204e-05
0.0225 0.63 0.0125 0.000308285 0.225757 -6.59646e-05
0.0275 0.63 0.0125 0.000479798 0.225876 -4.50522e-05
0.0325 0.63 0.0125 0.000589181 0.226089 -6.61241e-05
0.0375 0.63 0.0125 0.000634315 0.226271 -6.27115e-05
0.0425 0.63 0.0125 0.00061332 0.22644 -1.32141e-05
0.0475 0.63 0.0125 0.000555316 0.226502 4.83006e-05
0.0525 0.63 0.0125 0.000446907 0.226647 6.54228e-05
0.0575 0.63 0.0125 0.000383293 0.226854 1.36381e-05
0.0625 0.63 0.0125 0.000388058 0.22675 -1.48578e-05
0.0675 0.63 0.0125 0.000456567 0.22632 -9.27021e-06
0.0725 0.63 0.0125 0.000465552 0.225657 6.79069e-05
0.0775 0.63 0.0125 0.000438703 0.224957 0.000145795
0.0825 0.63 0.0125 0.000353411 0.224714 0.000176111
0.0875 0.63 0.0125 0.000119611 0.223781 0.000168115
0.0925 0.63 0.0125 0.000273002 0.225456 0.000139109
0.0975 0.63 0.0125 0.000430461 0.217089 -6.3952e-05
0.0025 0.63 0.0175 -0.000115689 0.210181 -7.19413e-05
0.0075 0.63 0.0175 -0.000582368 0.214925 -0.00018105
0.0125 0.63 0.0175 -0.000699052 0.216189 -4.67388e-05
0.0175 0.63 0.0175 -0.000665444 0.218614 -5.73947e-06
0.0225 0.63 0.0175 -0.00059141 0.220941 -2.02487e-05
0.0275 0.63 0.0175 -0.00040834 0.22322 1.02756e-05
0.0325 0.63 0.0175 -0.00020938 0.225318 -1.6351e-05
0.0375 0.63 0.0175 -3.05418e-05 0.227103 -1.38168e-05
0.0425 0.63 0.0175 0.000129567 0.228472 3.90596e-05
0.0475 0.63 0.0175 0.000341003 0.229333 9.16901e-05
0.0525 0.63 0.0175 0.000539167 0.229597 0.000102667
0.0575 0.63 0.0175 0.000699031 0.229434 5.50482e-05
0.0625 0.63 0.0175 0.000789239 0.228821 3.82219e-05
0.0675 0.63 0.0175 0.00088107 0.227777 4.66864e-05
0.0725 0.63 0.0175 0.000884452 0.226276 0.000115811
0.0775 0.63 0.0175 0.00093299 0.224941 0.000190586
0.0825 0.63 0.0175 0.000932011 0.223283 0.000217812
0.0875 0.63 0.0175 0.000875228 0.221452 0.000230127
0.0925 0.63 0.0175 0.000737323 0.220928 0.000247736
0.0975 0.63 0.0175 0.000332874 0.217828 2.31692e-06
