# UMean.water  FACE_DATA 80
#  x  y  z  UMean.water_x  UMean.water_y  UMean.water_z  
0.0025 0.08 0.0025 0.00543261 -0.187597 0.000490704
0.0075 0.08 0.0025 0.0108743 -0.160735 0.000487695
0.0125 0.08 0.0025 0.0158766 -0.122749 0.000512415
0.0175 0.08 0.0025 0.0166135 -0.0746619 0.000993794
0.0225 0.08 0.0025 0.0164365 -0.0201212 0.000758192
0.0275 0.08 0.0025 0.0159534 0.0367715 -0.000640681
0.0325 0.08 0.0025 0.0157857 0.0902842 -0.00107864
0.0375 0.08 0.0025 0.0139701 0.130268 -0.00148531
0.0425 0.08 0.0025 0.010264 0.148017 -0.00173214
0.0475 0.08 0.0025 0.00380162 0.153706 -0.00171289
0.0525 0.08 0.0025 -0.00358443 0.154584 -0.00172876
0.0575 0.08 0.0025 -0.0113085 0.148021 -0.0018056
0.0625 0.08 0.0025 -0.0171897 0.124175 -0.00163947
0.0675 0.08 0.0025 -0.0202284 0.0809223 -0.00115931
0.0725 0.08 0.0025 -0.0207874 0.0254673 -0.000428576
0.0775 0.08 0.0025 -0.0204052 -0.0326077 0.000535695
0.0825 0.08 0.0025 -0.0180881 -0.0830129 0.00101728
0.0875 0.08 0.0025 -0.0161477 -0.124403 0.000920263
0.0925 0.08 0.0025 -0.0104767 -0.158269 0.000978766
0.0975 0.08 0.0025 -0.0052129 -0.182201 0.000795673
0.0025 0.08 0.0075 0.00579755 -0.165734 0.000759682
0.0075 0.08 0.0075 0.0126394 -0.138967 0.0012929
0.0125 0.08 0.0075 0.017602 -0.106017 0.00168201
0.0175 0.08 0.0075 0.0193583 -0.0667944 0.00221536
0.0225 0.08 0.0075 0.0197725 -0.0169304 0.00241151
0.0275 0.08 0.0075 0.0184723 0.0413517 0.00112539
0.0325 0.08 0.0075 0.0172701 0.0965081 0.00101409
0.0375 0.08 0.0075 0.014821 0.138228 0.000553124
0.0425 0.08 0.0075 0.0103343 0.1606 -0.000113462
0.0475 0.08 0.0075 0.00359265 0.169786 -0.000653181
0.0525 0.08 0.0075 -0.00423563 0.170172 -0.000722524
0.0575 0.08 0.0075 -0.012119 0.159964 -0.000262352
0.0625 0.08 0.0075 -0.0182943 0.132038 0.000285159
0.0675 0.08 0.0075 -0.0221796 0.0862329 0.000913449
0.0725 0.08 0.0075 -0.0238297 0.0280463 0.00175292
0.0775 0.08 0.0075 -0.0238713 -0.0308856 0.00227932
0.0825 0.08 0.0075 -0.0211766 -0.0773474 0.00205598
0.0875 0.08 0.0075 -0.0180512 -0.110145 0.0020374
0.0925 0.08 0.0075 -0.0123708 -0.137968 0.00188966
0.0975 0.08 0.0075 -0.00544207 -0.161909 0.00143779
0.0025 0.08 0.0125 0.00568087 -0.164681 -0.00237127
0.0075 0.08 0.0125 0.0121425 -0.137191 -0.00289109
0.0125 0.08 0.0125 0.0170107 -0.102963 -0.00294248
0.0175 0.08 0.0125 0.0187678 -0.0641864 -0.00264474
0.0225 0.08 0.0125 0.0191932 -0.0150214 -0.00111405
0.0275 0.08 0.0125 0.0181358 0.0428115 -0.000329659
0.0325 0.08 0.0125 0.0170544 0.0982592 0.00092766
0.0375 0.08 0.0125 0.0144821 0.140397 0.0013435
0.0425 0.08 0.0125 0.00986206 0.163995 0.00111029
0.0475 0.08 0.0125 0.00305963 0.17392 0.000887106
0.0525 0.08 0.0125 -0.00471543 0.173927 0.000810983
0.0575 0.08 0.0125 -0.0123755 0.162628 0.00110207
0.0625 0.08 0.0125 -0.0183912 0.133692 0.00106953
0.0675 0.08 0.0125 -0.022188 0.0869608 0.000708591
0.0725 0.08 0.0125 -0.0235756 0.0283361 -3.20242e-06
0.0775 0.08 0.0125 -0.0237264 -0.0309074 -0.00141655
0.0825 0.08 0.0125 -0.0213867 -0.0792124 -0.00299782
0.0875 0.08 0.0125 -0.0182577 -0.11238 -0.00266861
0.0925 0.08 0.0125 -0.0123798 -0.139935 -0.00240617
0.0975 0.08 0.0125 -0.00538517 -0.162752 -0.0015199
0.0025 0.08 0.0175 0.0049424 -0.184908 -0.00134087
0.0075 0.08 0.0175 0.0094118 -0.156893 -0.001444
0.0125 0.08 0.0175 0.0140065 -0.115788 -0.00130063
0.0175 0.08 0.0175 0.0147268 -0.0685821 -0.000974588
0.0225 0.08 0.0175 0.0149091 -0.0163 0.000121543
0.0275 0.08 0.0175 0.0145248 0.0410258 0.000795303
0.0325 0.08 0.0175 0.0146477 0.0960619 0.00204428
0.0375 0.08 0.0175 0.0132918 0.136555 0.00255439
0.0425 0.08 0.0175 0.00950183 0.158074 0.00228866
0.0475 0.08 0.0175 0.00284254 0.166334 0.0018142
0.0525 0.08 0.0175 -0.0047118 0.166688 0.00187865
0.0575 0.08 0.0175 -0.0118002 0.157313 0.00217684
0.0625 0.08 0.0175 -0.0169258 0.130187 0.00242085
0.0675 0.08 0.0175 -0.0193821 0.0857425 0.00207158
0.0725 0.08 0.0175 -0.0194524 0.0291874 0.00117864
0.0775 0.08 0.0175 -0.019524 -0.0292685 0.000175281
0.0825 0.08 0.0175 -0.0177262 -0.0836089 -0.00132493
0.0875 0.08 0.0175 -0.0160238 -0.126256 -0.00141895
0.0925 0.08 0.0175 -0.01042 -0.161853 -0.00141631
0.0975 0.08 0.0175 -0.00514772 -0.184223 -0.000846533
