# UMean.water  FACE_DATA 80
#  x  y  z  UMean.water_x  UMean.water_y  UMean.water_z  
0.0025 0.63 0.0025 2.68247e-05 -0.0139326 2.81206e-05
0.0075 0.63 0.0025 -0.000115876 -0.00933978 8.56125e-05
0.0125 0.63 0.0025 -0.00010626 -0.00802503 2.92276e-05
0.0175 0.63 0.0025 -7.94268e-05 -0.00567187 3.49627e-06
0.0225 0.63 0.0025 2.85947e-05 -0.00341157 -1.94011e-05
0.0275 0.63 0.0025 0.000183524 -0.00108261 -2.56644e-05
0.0325 0.63 0.0025 0.000334617 0.00106514 -1.15303e-05
0.0375 0.63 0.0025 0.000450689 0.00289408 -8.22644e-06
0.0425 0.63 0.0025 0.000490066 0.00427032 -1.27355e-05
0.0475 0.63 0.0025 0.000510385 0.00519563 -2.22781e-05
0.0525 0.63 0.0025 0.000490736 0.00559506 -3.63753e-05
0.0575 0.63 0.0025 0.000463264 0.00543918 -4.74437e-05
0.0625 0.63 0.0025 0.000442443 0.00487831 -6.38747e-05
0.0675 0.63 0.0025 0.000495383 0.00394728 -7.28137e-05
0.0725 0.63 0.0025 0.000511722 0.00252623 -8.01901e-05
0.0775 0.63 0.0025 0.000547946 0.00122039 -9.41008e-05
0.0825 0.63 0.0025 0.000515687 -0.000432831 -0.000104143
0.0875 0.63 0.0025 0.000466854 -0.00225953 -0.000100614
0.0925 0.63 0.0025 0.0003721 -0.00272734 -0.000116691
0.0975 0.63 0.0025 0.000160132 -0.00613566 -1.99557e-05
0.0025 0.63 0.0075 2.80754e-05 -0.0116172 2.03292e-05
0.0075 0.63 0.0075 7.97703e-05 0.00172886 6.02718e-05
0.0125 0.63 0.0075 0.00014502 0.000981156 1.26144e-05
0.0175 0.63 0.0075 0.000211957 0.00137319 -1.81844e-06
0.0225 0.63 0.0075 0.000336326 0.0018149 -5.31783e-06
0.0275 0.63 0.0075 0.000474678 0.00191842 -5.97513e-06
0.0325 0.63 0.0075 0.000584981 0.00211938 -4.11734e-07
0.0375 0.63 0.0075 0.000637857 0.00231094 8.85562e-06
0.0425 0.63 0.0075 0.000614321 0.00248495 1.21344e-05
0.0475 0.63 0.0075 0.000560194 0.00253888 9.90148e-06
0.0525 0.63 0.0075 0.000473232 0.00268864 -8.24059e-06
0.0575 0.63 0.0075 0.000387117 0.00288453 -2.02201e-05
0.0625 0.63 0.0075 0.000316547 0.00279238 -2.35537e-05
0.0675 0.63 0.0075 0.000300969 0.00236426 -2.64857e-05
0.0725 0.63 0.0075 0.000277215 0.00172633 -3.04552e-05
0.0775 0.63 0.0075 0.000282388 0.00104414 -3.53648e-05
0.0825 0.63 0.0075 0.000246493 0.000847436 -4.42889e-05
0.0875 0.63 0.0075 0.000214161 -9.68908e-05 -2.87014e-05
0.0925 0.63 0.0075 0.000241809 0.00166344 2.2404e-06
0.0975 0.63 0.0075 0.000255494 -0.00666542 4.03299e-05
0.0025 0.63 0.0125 2.21962e-05 -0.0114214 -5.18326e-05
0.0075 0.63 0.0125 7.35394e-05 0.00176319 -9.79192e-05
0.0125 0.63 0.0125 0.000145784 0.000966902 -5.9562e-05
0.0175 0.63 0.0125 0.000214966 0.0013888 -3.79576e-05
0.0225 0.63 0.0125 0.000334138 0.00187347 -4.58935e-05
0.0275 0.63 0.0125 0.000475611 0.00198737 -4.63613e-05
0.0325 0.63 0.0125 0.000585635 0.00221314 -4.06146e-05
0.0375 0.63 0.0125 0.000632153 0.00240968 -2.94807e-05
0.0425 0.63 0.0125 0.000603248 0.00258647 -1.47357e-05
0.0475 0.63 0.0125 0.000548757 0.00264906 1.86708e-06
0.0525 0.63 0.0125 0.000464701 0.00279448 1.12646e-05
0.0575 0.63 0.0125 0.000385611 0.00300067 1.18872e-05
0.0625 0.63 0.0125 0.000317105 0.00288758 1.46233e-05
0.0675 0.63 0.0125 0.000299984 0.00244947 2.04489e-05
0.0725 0.63 0.0125 0.000275482 0.00178309 3.07867e-05
0.0775 0.63 0.0125 0.000280365 0.00108248 3.9753e-05
0.0825 0.63 0.0125 0.000247774 0.00085158 5.54396e-05
0.0875 0.63 0.0125 0.000219642 -0.000101146 5.4995e-05
0.0925 0.63 0.0125 0.000248661 0.00161632 4.18193e-05
0.0975 0.63 0.0125 0.000261109 -0.00674974 -1.13157e-05
0.0025 0.63 0.0175 2.84386e-05 -0.0136905 -4.612e-05
0.0075 0.63 0.0175 -0.000127419 -0.00896196 -9.99707e-05
0.0125 0.63 0.0175 -0.000111058 -0.00772826 -5.32553e-05
0.0175 0.63 0.0175 -6.94505e-05 -0.00530119 -2.00167e-05
0.0225 0.63 0.0175 3.78557e-05 -0.00297687 -5.83987e-06
0.0275 0.63 0.0175 0.000190316 -0.000690385 -2.38294e-06
0.0325 0.63 0.0175 0.000326724 0.00142439 -4.86925e-06
0.0375 0.63 0.0175 0.000422669 0.00323198 6.45297e-06
0.0425 0.63 0.0175 0.000455367 0.00461845 2.34555e-05
0.0475 0.63 0.0175 0.000475732 0.00548928 3.94735e-05
0.0525 0.63 0.0175 0.000465403 0.00575803 4.37571e-05
0.0575 0.63 0.0175 0.000458168 0.00559285 4.64634e-05
0.0625 0.63 0.0175 0.000445585 0.00497314 6.29324e-05
0.0675 0.63 0.0175 0.000496084 0.00392459 7.48632e-05
0.0725 0.63 0.0175 0.000509417 0.00242236 8.50935e-05
0.0775 0.63 0.0175 0.000534285 0.00109323 9.89641e-05
0.0825 0.63 0.0175 0.000504233 -0.000561774 0.000110045
0.0875 0.63 0.0175 0.000466763 -0.00239489 0.000117218
0.0925 0.63 0.0175 0.000380227 -0.00288941 0.000146948
0.0975 0.63 0.0175 0.000175203 -0.00597874 4.72024e-05
