# UMean.air  FACE_DATA 80
#  x  y  z  UMean.air_x  UMean.air_y  UMean.air_z  
0.0025 0.08 0.0025 0.00348533 0.0473208 0.00146392
0.0075 0.08 0.0025 0.00475041 0.0734654 0.00242466
0.0125 0.08 0.0025 0.00607182 0.110919 0.00242707
0.0175 0.08 0.0025 0.00435572 0.158215 0.00144046
0.0225 0.08 0.0025 0.00356334 0.212255 -0.000638826
0.0275 0.08 0.0025 0.00262779 0.268117 -0.00348831
0.0325 0.08 0.0025 0.00351793 0.32136 -0.00496409
0.0375 0.08 0.0025 0.00497199 0.360559 -0.00694968
0.0425 0.08 0.0025 0.00642393 0.377399 -0.00907043
0.0475 0.08 0.0025 0.00358197 0.382688 -0.0102125
0.0525 0.08 0.0025 -0.00159343 0.3834 -0.0102296
0.0575 0.08 0.0025 -0.00579598 0.377217 -0.00899714
0.0625 0.08 0.0025 -0.00763147 0.354117 -0.00689277
0.0675 0.08 0.0025 -0.00841992 0.311673 -0.00482883
0.0725 0.08 0.0025 -0.00786973 0.257148 -0.00304955
0.0775 0.08 0.0025 -0.0080939 0.20026 -0.000342755
0.0825 0.08 0.0025 -0.00735576 0.150194 0.00188971
0.0875 0.08 0.0025 -0.00820445 0.109811 0.00265101
0.0925 0.08 0.0025 -0.00610287 0.0763695 0.00290052
0.0975 0.08 0.0025 -0.00369472 0.0522516 0.00210333
0.0025 0.08 0.0075 0.00420048 0.0692808 0.00137111
0.0075 0.08 0.0075 0.00468982 0.0936992 0.00280909
0.0125 0.08 0.0075 0.00324077 0.124733 0.00297604
0.0175 0.08 0.0075 0.00145581 0.162968 0.00201432
0.0225 0.08 0.0075 -0.00153332 0.212539 0.000488552
0.0275 0.08 0.0075 -0.00500762 0.271505 -0.00220037
0.0325 0.08 0.0075 -0.00512972 0.327559 -0.00294208
0.0375 0.08 0.0075 -0.00244914 0.369174 -0.00485474
0.0425 0.08 0.0075 0.000795583 0.391049 -0.00769199
0.0475 0.08 0.0075 0.00125189 0.399673 -0.00951859
0.0525 0.08 0.0075 -3.49003e-06 0.399973 -0.00964966
0.0575 0.08 0.0075 -0.000780061 0.390149 -0.00786799
0.0625 0.08 0.0075 -2.05319e-05 0.362602 -0.00527762
0.0675 0.08 0.0075 0.000373224 0.316803 -0.00292622
0.0725 0.08 0.0075 -0.000365346 0.258316 -0.000971327
0.0775 0.08 0.0075 -0.00326667 0.199402 0.00134525
0.0825 0.08 0.0075 -0.00489245 0.152694 0.00299886
0.0875 0.08 0.0075 -0.00541732 0.11998 0.00400897
0.0925 0.08 0.0075 -0.00593478 0.0935231 0.00415354
0.0975 0.08 0.0075 -0.00440011 0.0720825 0.00272442
0.0025 0.08 0.0125 0.00401691 0.0704175 -0.00369356
0.0075 0.08 0.0125 0.00429421 0.0954916 -0.00535941
0.0125 0.08 0.0125 0.00260592 0.127921 -0.00578303
0.0175 0.08 0.0125 0.000705175 0.165753 -0.00434142
0.0225 0.08 0.0125 -0.00232387 0.214356 -0.00078918
0.0275 0.08 0.0125 -0.00525219 0.272876 0.00135521
0.0325 0.08 0.0125 -0.00497717 0.329048 0.00394479
0.0375 0.08 0.0125 -0.00267864 0.371145 0.00565736
0.0425 0.08 0.0125 0.000133243 0.394402 0.00705602
0.0475 0.08 0.0125 0.000605794 0.403853 0.00796842
0.0525 0.08 0.0125 -0.000377045 0.40382 0.00782009
0.0575 0.08 0.0125 -0.000756947 0.392795 0.00679517
0.0625 0.08 0.0125 0.000217278 0.36423 0.00527938
0.0675 0.08 0.0125 0.000531946 0.317587 0.00379982
0.0725 0.08 0.0125 -0.000260358 0.258649 0.00202983
0.0775 0.08 0.0125 -0.00328067 0.199319 -0.000781593
0.0825 0.08 0.0125 -0.00505365 0.150658 -0.00404437
0.0875 0.08 0.0125 -0.00551974 0.11712 -0.00447327
0.0925 0.08 0.0125 -0.0059085 0.0910351 -0.0040303
0.0975 0.08 0.0125 -0.00424591 0.0705247 -0.0025384
0.0025 0.08 0.0175 0.00301881 0.0507699 -0.00256408
0.0075 0.08 0.0175 0.00329593 0.0775096 -0.00353908
0.0125 0.08 0.0175 0.00394059 0.117876 -0.00346834
0.0175 0.08 0.0175 0.00226457 0.164703 -0.00194694
0.0225 0.08 0.0175 0.00143155 0.215915 0.00106824
0.0275 0.08 0.0175 0.0011106 0.272359 0.00325379
0.0325 0.08 0.0175 0.0027289 0.326552 0.00552887
0.0375 0.08 0.0175 0.00396988 0.366412 0.00721616
0.0425 0.08 0.0175 0.00459996 0.387236 0.00881758
0.0475 0.08 0.0175 0.00205362 0.395181 0.00972995
0.0525 0.08 0.0175 -0.00215804 0.395533 0.00979769
0.0575 0.08 0.0175 -0.00497299 0.38647 0.00867586
0.0625 0.08 0.0175 -0.00619604 0.360017 0.00724472
0.0675 0.08 0.0175 -0.00681387 0.316398 0.00563723
0.0725 0.08 0.0175 -0.00616824 0.260829 0.00351619
0.0775 0.08 0.0175 -0.00689766 0.202683 0.000993446
0.0825 0.08 0.0175 -0.00678719 0.148572 -0.00230705
0.0875 0.08 0.0175 -0.00775891 0.105883 -0.00337588
0.0925 0.08 0.0175 -0.00582862 0.0704329 -0.0033954
0.0975 0.08 0.0175 -0.00361993 0.0487853 -0.00216211
