# alphaMean.air  FACE_DATA 80
#  x  y  z  alphaMean.air
0.0025 0.08 0.0025 0.00314533
0.0075 0.08 0.0025 0.00438364
0.0125 0.08 0.0025 0.00444815
0.0175 0.08 0.0025 0.00609052
0.0225 0.08 0.0025 0.0103549
0.0275 0.08 0.0025 0.0151505
0.0325 0.08 0.0025 0.019306
0.0375 0.08 0.0025 0.020685
0.0425 0.08 0.0025 0.0203109
0.0475 0.08 0.0025 0.0195626
0.0525 0.08 0.0025 0.0192575
0.0575 0.08 0.0025 0.0205391
0.0625 0.08 0.0025 0.0231743
0.0675 0.08 0.0025 0.0237738
0.0725 0.08 0.0025 0.0196741
0.0775 0.08 0.0025 0.0131759
0.0825 0.08 0.0025 0.00756385
0.0875 0.08 0.0025 0.00476945
0.0925 0.08 0.0025 0.00332607
0.0975 0.08 0.0025 0.00212785
0.0025 0.08 0.0075 0.00749245
0.0075 0.08 0.0075 0.0156576
0.0125 0.08 0.0075 0.0144618
0.0175 0.08 0.0075 0.0149227
0.0225 0.08 0.0075 0.018529
0.0275 0.08 0.0075 0.0232829
0.0325 0.08 0.0075 0.0286248
0.0375 0.08 0.0075 0.0314492
0.0425 0.08 0.0075 0.0320204
0.0475 0.08 0.0075 0.0316119
0.0525 0.08 0.0075 0.0318637
0.0575 0.08 0.0075 0.0335783
0.0625 0.08 0.0075 0.0356965
0.0675 0.08 0.0075 0.0344507
0.0725 0.08 0.0075 0.0293634
0.0775 0.08 0.0075 0.0227216
0.0825 0.08 0.0075 0.017427
0.0875 0.08 0.0075 0.0163776
0.0925 0.08 0.0075 0.0152243
0.0975 0.08 0.0075 0.00672467
0.0025 0.08 0.0125 0.00707233
0.0075 0.08 0.0125 0.0151374
0.0125 0.08 0.0125 0.0159053
0.0175 0.08 0.0125 0.0163445
0.0225 0.08 0.0125 0.0200631
0.0275 0.08 0.0125 0.0247718
0.0325 0.08 0.0125 0.0295165
0.0375 0.08 0.0125 0.0318578
0.0425 0.08 0.0125 0.0323591
0.0475 0.08 0.0125 0.0318551
0.0525 0.08 0.0125 0.03214
0.0575 0.08 0.0125 0.0337804
0.0625 0.08 0.0125 0.0358573
0.0675 0.08 0.0125 0.0350182
0.0725 0.08 0.0125 0.0306664
0.0775 0.08 0.0125 0.0248144
0.0825 0.08 0.0125 0.019682
0.0875 0.08 0.0125 0.0182368
0.0925 0.08 0.0125 0.0163252
0.0975 0.08 0.0125 0.00721906
0.0025 0.08 0.0175 0.00267297
0.0075 0.08 0.0175 0.00390091
0.0125 0.08 0.0175 0.00504906
0.0175 0.08 0.0175 0.00761604
0.0225 0.08 0.0175 0.0118578
0.0275 0.08 0.0175 0.016335
0.0325 0.08 0.0175 0.019361
0.0375 0.08 0.0175 0.0201788
0.0425 0.08 0.0175 0.0197522
0.0475 0.08 0.0175 0.0189971
0.0525 0.08 0.0175 0.0189314
0.0575 0.08 0.0175 0.0201159
0.0625 0.08 0.0175 0.0223174
0.0675 0.08 0.0175 0.0231703
0.0725 0.08 0.0175 0.0201523
0.0775 0.08 0.0175 0.0146128
0.0825 0.08 0.0175 0.00915383
0.0875 0.08 0.0175 0.00621168
0.0925 0.08 0.0175 0.0045853
0.0975 0.08 0.0175 0.00276598
