# alphaMean.air  FACE_DATA 80
#  x  y  z  alphaMean.air
0.0025 0.63 0.0025 0.0118689
0.0075 0.63 0.0025 0.0104836
0.0125 0.63 0.0025 0.00955514
0.0175 0.63 0.0025 0.0104583
0.0225 0.63 0.0025 0.0113155
0.0275 0.63 0.0025 0.0120859
0.0325 0.63 0.0025 0.0127903
0.0375 0.63 0.0025 0.0133669
0.0425 0.63 0.0025 0.0137496
0.0475 0.63 0.0025 0.0140342
0.0525 0.63 0.0025 0.0142979
0.0575 0.63 0.0025 0.0144792
0.0625 0.63 0.0025 0.0145264
0.0675 0.63 0.0025 0.014395
0.0725 0.63 0.0025 0.0140831
0.0775 0.63 0.0025 0.013687
0.0825 0.63 0.0025 0.0130236
0.0875 0.63 0.0025 0.0131109
0.0925 0.63 0.0025 0.0154421
0.0975 0.63 0.0025 0.0155012
0.0025 0.63 0.0075 0.0184136
0.0075 0.63 0.0075 0.0441029
0.0125 0.63 0.0075 0.0395719
0.0175 0.63 0.0075 0.0358224
0.0225 0.63 0.0075 0.0358126
0.0275 0.63 0.0075 0.0350732
0.0325 0.63 0.0075 0.0349138
0.0375 0.63 0.0075 0.0345797
0.0425 0.63 0.0075 0.0341189
0.0475 0.63 0.0075 0.0336178
0.0525 0.63 0.0075 0.0332109
0.0575 0.63 0.0075 0.0329233
0.0625 0.63 0.0075 0.0328358
0.0675 0.63 0.0075 0.0330304
0.0725 0.63 0.0075 0.0334158
0.0775 0.63 0.0075 0.0344449
0.0825 0.63 0.0075 0.034765
0.0875 0.63 0.0075 0.0369484
0.0925 0.63 0.0075 0.0400021
0.0975 0.63 0.0075 0.0247185
0.0025 0.63 0.0125 0.0181102
0.0075 0.63 0.0125 0.0434098
0.0125 0.63 0.0125 0.0390004
0.0175 0.63 0.0125 0.0354779
0.0225 0.63 0.0125 0.0354918
0.0275 0.63 0.0125 0.0346533
0.0325 0.63 0.0125 0.0345052
0.0375 0.63 0.0125 0.0342691
0.0425 0.63 0.0125 0.0339904
0.0475 0.63 0.0125 0.0336542
0.0525 0.63 0.0125 0.0333504
0.0575 0.63 0.0125 0.0331045
0.0625 0.63 0.0125 0.0329557
0.0675 0.63 0.0125 0.033061
0.0725 0.63 0.0125 0.0333928
0.0775 0.63 0.0125 0.034415
0.0825 0.63 0.0125 0.0349572
0.0875 0.63 0.0125 0.03729
0.0925 0.63 0.0125 0.0403257
0.0975 0.63 0.0125 0.0248585
0.0025 0.63 0.0175 0.0122403
0.0075 0.63 0.0175 0.0115823
0.0125 0.63 0.0175 0.0103894
0.0175 0.63 0.0175 0.0110259
0.0225 0.63 0.0175 0.0118901
0.0275 0.63 0.0175 0.0124745
0.0325 0.63 0.0175 0.0130747
0.0375 0.63 0.0175 0.0136126
0.0425 0.63 0.0175 0.0140269
0.0475 0.63 0.0175 0.0143558
0.0525 0.63 0.0175 0.0145571
0.0575 0.63 0.0175 0.0146055
0.0625 0.63 0.0175 0.0145012
0.0675 0.63 0.0175 0.0142628
0.0725 0.63 0.0175 0.0138748
0.0775 0.63 0.0175 0.0133477
0.0825 0.63 0.0175 0.012788
0.0875 0.63 0.0175 0.0128687
0.0925 0.63 0.0175 0.0149126
0.0975 0.63 0.0175 0.0154664
