# alphaMean.water  FACE_DATA 80
#  x  y  z  alphaMean.water
0.0025 0.63 0.0025 0.988131
0.0075 0.63 0.0025 0.989516
0.0125 0.63 0.0025 0.990445
0.0175 0.63 0.0025 0.989542
0.0225 0.63 0.0025 0.988684
0.0275 0.63 0.0025 0.987914
0.0325 0.63 0.0025 0.98721
0.0375 0.63 0.0025 0.986633
0.0425 0.63 0.0025 0.98625
0.0475 0.63 0.0025 0.985966
0.0525 0.63 0.0025 0.985702
0.0575 0.63 0.0025 0.985521
0.0625 0.63 0.0025 0.985474
0.0675 0.63 0.0025 0.985605
0.0725 0.63 0.0025 0.985917
0.0775 0.63 0.0025 0.986313
0.0825 0.63 0.0025 0.986976
0.0875 0.63 0.0025 0.986889
0.0925 0.63 0.0025 0.984558
0.0975 0.63 0.0025 0.984499
0.0025 0.63 0.0075 0.981586
0.0075 0.63 0.0075 0.955897
0.0125 0.63 0.0075 0.960428
0.0175 0.63 0.0075 0.964178
0.0225 0.63 0.0075 0.964187
0.0275 0.63 0.0075 0.964927
0.0325 0.63 0.0075 0.965086
0.0375 0.63 0.0075 0.96542
0.0425 0.63 0.0075 0.965881
0.0475 0.63 0.0075 0.966382
0.0525 0.63 0.0075 0.966789
0.0575 0.63 0.0075 0.967077
0.0625 0.63 0.0075 0.967164
0.0675 0.63 0.0075 0.96697
0.0725 0.63 0.0075 0.966584
0.0775 0.63 0.0075 0.965555
0.0825 0.63 0.0075 0.965235
0.0875 0.63 0.0075 0.963052
0.0925 0.63 0.0075 0.959998
0.0975 0.63 0.0075 0.975281
0.0025 0.63 0.0125 0.98189
0.0075 0.63 0.0125 0.95659
0.0125 0.63 0.0125 0.961
0.0175 0.63 0.0125 0.964522
0.0225 0.63 0.0125 0.964508
0.0275 0.63 0.0125 0.965347
0.0325 0.63 0.0125 0.965495
0.0375 0.63 0.0125 0.965731
0.0425 0.63 0.0125 0.96601
0.0475 0.63 0.0125 0.966346
0.0525 0.63 0.0125 0.96665
0.0575 0.63 0.0125 0.966895
0.0625 0.63 0.0125 0.967044
0.0675 0.63 0.0125 0.966939
0.0725 0.63 0.0125 0.966607
0.0775 0.63 0.0125 0.965585
0.0825 0.63 0.0125 0.965043
0.0875 0.63 0.0125 0.96271
0.0925 0.63 0.0125 0.959674
0.0975 0.63 0.0125 0.975142
0.0025 0.63 0.0175 0.98776
0.0075 0.63 0.0175 0.988418
0.0125 0.63 0.0175 0.989611
0.0175 0.63 0.0175 0.988974
0.0225 0.63 0.0175 0.98811
0.0275 0.63 0.0175 0.987525
0.0325 0.63 0.0175 0.986925
0.0375 0.63 0.0175 0.986387
0.0425 0.63 0.0175 0.985973
0.0475 0.63 0.0175 0.985644
0.0525 0.63 0.0175 0.985443
0.0575 0.63 0.0175 0.985394
0.0625 0.63 0.0175 0.985499
0.0675 0.63 0.0175 0.985737
0.0725 0.63 0.0175 0.986125
0.0775 0.63 0.0175 0.986652
0.0825 0.63 0.0175 0.987212
0.0875 0.63 0.0175 0.987131
0.0925 0.63 0.0175 0.985087
0.0975 0.63 0.0175 0.984534
