# alphaMean.water  FACE_DATA 80
#  x  y  z  alphaMean.water
0.0025 0.08 0.0025 0.996855
0.0075 0.08 0.0025 0.995616
0.0125 0.08 0.0025 0.995552
0.0175 0.08 0.0025 0.993909
0.0225 0.08 0.0025 0.989645
0.0275 0.08 0.0025 0.98485
0.0325 0.08 0.0025 0.980694
0.0375 0.08 0.0025 0.979315
0.0425 0.08 0.0025 0.979689
0.0475 0.08 0.0025 0.980437
0.0525 0.08 0.0025 0.980743
0.0575 0.08 0.0025 0.979461
0.0625 0.08 0.0025 0.976826
0.0675 0.08 0.0025 0.976226
0.0725 0.08 0.0025 0.980326
0.0775 0.08 0.0025 0.986824
0.0825 0.08 0.0025 0.992436
0.0875 0.08 0.0025 0.995231
0.0925 0.08 0.0025 0.996674
0.0975 0.08 0.0025 0.997872
0.0025 0.08 0.0075 0.992508
0.0075 0.08 0.0075 0.984342
0.0125 0.08 0.0075 0.985538
0.0175 0.08 0.0075 0.985077
0.0225 0.08 0.0075 0.981471
0.0275 0.08 0.0075 0.976717
0.0325 0.08 0.0075 0.971375
0.0375 0.08 0.0075 0.968551
0.0425 0.08 0.0075 0.96798
0.0475 0.08 0.0075 0.968388
0.0525 0.08 0.0075 0.968136
0.0575 0.08 0.0075 0.966422
0.0625 0.08 0.0075 0.964304
0.0675 0.08 0.0075 0.965549
0.0725 0.08 0.0075 0.970637
0.0775 0.08 0.0075 0.977278
0.0825 0.08 0.0075 0.982573
0.0875 0.08 0.0075 0.983622
0.0925 0.08 0.0075 0.984776
0.0975 0.08 0.0075 0.993275
0.0025 0.08 0.0125 0.992928
0.0075 0.08 0.0125 0.984863
0.0125 0.08 0.0125 0.984095
0.0175 0.08 0.0125 0.983655
0.0225 0.08 0.0125 0.979937
0.0275 0.08 0.0125 0.975228
0.0325 0.08 0.0125 0.970484
0.0375 0.08 0.0125 0.968142
0.0425 0.08 0.0125 0.967641
0.0475 0.08 0.0125 0.968145
0.0525 0.08 0.0125 0.96786
0.0575 0.08 0.0125 0.96622
0.0625 0.08 0.0125 0.964143
0.0675 0.08 0.0125 0.964982
0.0725 0.08 0.0125 0.969334
0.0775 0.08 0.0125 0.975186
0.0825 0.08 0.0125 0.980318
0.0875 0.08 0.0125 0.981763
0.0925 0.08 0.0125 0.983675
0.0975 0.08 0.0125 0.992781
0.0025 0.08 0.0175 0.997327
0.0075 0.08 0.0175 0.996099
0.0125 0.08 0.0175 0.994951
0.0175 0.08 0.0175 0.992384
0.0225 0.08 0.0175 0.988142
0.0275 0.08 0.0175 0.983665
0.0325 0.08 0.0175 0.980639
0.0375 0.08 0.0175 0.979821
0.0425 0.08 0.0175 0.980248
0.0475 0.08 0.0175 0.981003
0.0525 0.08 0.0175 0.981069
0.0575 0.08 0.0175 0.979884
0.0625 0.08 0.0175 0.977683
0.0675 0.08 0.0175 0.97683
0.0725 0.08 0.0175 0.979848
0.0775 0.08 0.0175 0.985387
0.0825 0.08 0.0175 0.990846
0.0875 0.08 0.0175 0.993788
0.0925 0.08 0.0175 0.995415
0.0975 0.08 0.0175 0.997234
