# pMean  FACE_DATA 80
#  x  y  z  pMean
0.0025 0.08 0.0025 108753
0.0075 0.08 0.0025 108751
0.0125 0.08 0.0025 108750
0.0175 0.08 0.0025 108748
0.0225 0.08 0.0025 108745
0.0275 0.08 0.0025 108742
0.0325 0.08 0.0025 108739
0.0375 0.08 0.0025 108736
0.0425 0.08 0.0025 108734
0.0475 0.08 0.0025 108733
0.0525 0.08 0.0025 108733
0.0575 0.08 0.0025 108733
0.0625 0.08 0.0025 108734
0.0675 0.08 0.0025 108737
0.0725 0.08 0.0025 108739
0.0775 0.08 0.0025 108742
0.0825 0.08 0.0025 108745
0.0875 0.08 0.0025 108748
0.0925 0.08 0.0025 108750
0.0975 0.08 0.0025 108752
0.0025 0.08 0.0075 108752
0.0075 0.08 0.0075 108751
0.0125 0.08 0.0075 108749
0.0175 0.08 0.0075 108747
0.0225 0.08 0.0075 108745
0.0275 0.08 0.0075 108742
0.0325 0.08 0.0075 108739
0.0375 0.08 0.0075 108736
0.0425 0.08 0.0075 108734
0.0475 0.08 0.0075 108732
0.0525 0.08 0.0075 108732
0.0575 0.08 0.0075 108733
0.0625 0.08 0.0075 108734
0.0675 0.08 0.0075 108736
0.0725 0.08 0.0075 108739
0.0775 0.08 0.0075 108742
0.0825 0.08 0.0075 108745
0.0875 0.08 0.0075 108747
0.0925 0.08 0.0075 108749
0.0975 0.08 0.0075 108751
0.0025 0.08 0.0125 108753
0.0075 0.08 0.0125 108751
0.0125 0.08 0.0125 108749
0.0175 0.08 0.0125 108747
0.0225 0.08 0.0125 108744
0.0275 0.08 0.0125 108741
0.0325 0.08 0.0125 108738
0.0375 0.08 0.0125 108736
0.0425 0.08 0.0125 108734
0.0475 0.08 0.0125 108733
0.0525 0.08 0.0125 108732
0.0575 0.08 0.0125 108733
0.0625 0.08 0.0125 108734
0.0675 0.08 0.0125 108736
0.0725 0.08 0.0125 108739
0.0775 0.08 0.0125 108742
0.0825 0.08 0.0125 108745
0.0875 0.08 0.0125 108747
0.0925 0.08 0.0125 108749
0.0975 0.08 0.0125 108751
0.0025 0.08 0.0175 108753
0.0075 0.08 0.0175 108751
0.0125 0.08 0.0175 108749
0.0175 0.08 0.0175 108747
0.0225 0.08 0.0175 108745
0.0275 0.08 0.0175 108742
0.0325 0.08 0.0175 108739
0.0375 0.08 0.0175 108736
0.0425 0.08 0.0175 108734
0.0475 0.08 0.0175 108733
0.0525 0.08 0.0175 108733
0.0575 0.08 0.0175 108733
0.0625 0.08 0.0175 108734
0.0675 0.08 0.0175 108736
0.0725 0.08 0.0175 108739
0.0775 0.08 0.0175 108742
0.0825 0.08 0.0175 108745
0.0875 0.08 0.0175 108747
0.0925 0.08 0.0175 108750
0.0975 0.08 0.0175 108751
