# UMean.water  FACE_DATA 80
#  x  y  z  UMean.water_x  UMean.water_y  UMean.water_z  
0.0025 0.08 0.0025 0.00389512 -0.163445 -0.00631761
0.0075 0.08 0.0025 0.00390106 -0.143446 -0.00184078
0.0125 0.08 0.0025 0.000928029 -0.11031 0.000733563
0.0175 0.08 0.0025 -0.00363728 -0.0680842 0.000492592
0.0225 0.08 0.0025 -0.00681929 -0.0235641 0.00052508
0.0275 0.08 0.0025 -0.00819709 0.0174662 -6.90907e-06
0.0325 0.08 0.0025 -0.00868864 0.0483599 -0.00098551
0.0375 0.08 0.0025 -0.00780258 0.0676601 -0.00114951
0.0425 0.08 0.0025 -0.00659611 0.0799885 -0.000577943
0.0475 0.08 0.0025 -0.00434992 0.0888842 0.000308387
0.0525 0.08 0.0025 -0.00167343 0.0926991 0.000658553
0.0575 0.08 0.0025 0.000811987 0.0930765 0.000407955
0.0625 0.08 0.0025 0.00326596 0.0918022 -0.000161027
0.0675 0.08 0.0025 0.00464302 0.0822581 -0.000848545
0.0725 0.08 0.0025 0.00461442 0.0582639 -0.00129334
0.0775 0.08 0.0025 0.00495098 0.0199133 -0.00214473
0.0825 0.08 0.0025 0.00477168 -0.0265475 -0.00223543
0.0875 0.08 0.0025 0.00431622 -0.0756573 -0.00150008
0.0925 0.08 0.0025 0.00348202 -0.115328 -0.000817164
0.0975 0.08 0.0025 -0.00138833 -0.144257 -0.00387887
0.0025 0.08 0.0075 -0.00207427 -0.159002 -0.00282621
0.0075 0.08 0.0075 -0.00249658 -0.129424 0.00336162
0.0125 0.08 0.0075 -0.00491946 -0.0921351 0.00510169
0.0175 0.08 0.0075 -0.00848806 -0.0440161 0.00530866
0.0225 0.08 0.0075 -0.01189 0.00548778 0.00493172
0.0275 0.08 0.0075 -0.0128646 0.0486424 0.00432038
0.0325 0.08 0.0075 -0.0129509 0.0796587 0.00372484
0.0375 0.08 0.0075 -0.0116796 0.0989518 0.00386009
0.0425 0.08 0.0075 -0.00952317 0.110693 0.00481557
0.0475 0.08 0.0075 -0.00605866 0.116775 0.00565009
0.0525 0.08 0.0075 -0.00209775 0.119113 0.00543861
0.0575 0.08 0.0075 0.00204421 0.119498 0.00421642
0.0625 0.08 0.0075 0.00541149 0.117358 0.00264585
0.0675 0.08 0.0075 0.00794067 0.108191 0.00122282
0.0725 0.08 0.0075 0.00897866 0.0849175 0.000580794
0.0775 0.08 0.0075 0.00932729 0.0452539 0.000363169
0.0825 0.08 0.0075 0.00796787 -0.00829243 0.000871336
0.0875 0.08 0.0075 0.00744056 -0.0652721 0.00215996
0.0925 0.08 0.0075 0.00542619 -0.108894 0.00487592
0.0975 0.08 0.0075 0.00434891 -0.140228 0.00211964
0.0025 0.08 0.0125 -0.00453964 -0.157492 -0.00495297
0.0075 0.08 0.0125 -0.00626533 -0.125034 -0.00289269
0.0125 0.08 0.0125 -0.0085658 -0.0864671 0.000117502
0.0175 0.08 0.0125 -0.0107805 -0.0418285 0.000517602
0.0225 0.08 0.0125 -0.0137476 0.00454829 0.000337157
0.0275 0.08 0.0125 -0.0148117 0.0457805 -0.000180508
0.0325 0.08 0.0125 -0.0151195 0.0761028 0.00020205
0.0375 0.08 0.0125 -0.0134159 0.0949308 0.00115888
0.0425 0.08 0.0125 -0.0107548 0.105446 0.00254008
0.0475 0.08 0.0125 -0.00667351 0.109864 0.00354586
0.0525 0.08 0.0125 -0.0022611 0.111252 0.00344109
0.0575 0.08 0.0125 0.00238977 0.110697 0.00241257
0.0625 0.08 0.0125 0.00621557 0.107493 0.000663944
0.0675 0.08 0.0125 0.0089063 0.0991517 -0.00134122
0.0725 0.08 0.0125 0.0103694 0.077856 -0.00250247
0.0775 0.08 0.0125 0.011005 0.0399984 -0.00286465
0.0825 0.08 0.0125 0.0100465 -0.0102583 -0.00341632
0.0875 0.08 0.0125 0.00946505 -0.0631043 -0.00262664
0.0925 0.08 0.0125 0.00587562 -0.107095 -0.00214798
0.0975 0.08 0.0125 0.00455255 -0.138244 -0.000354317
0.0025 0.08 0.0175 -0.000837972 -0.159925 0.00402635
0.0075 0.08 0.0175 -0.00377315 -0.136471 0.00253395
0.0125 0.08 0.0175 -0.00427245 -0.104247 0.00227032
0.0175 0.08 0.0175 -0.00556618 -0.067674 0.00200348
0.0225 0.08 0.0175 -0.00790332 -0.0298695 0.00200119
0.0275 0.08 0.0175 -0.00983151 0.0056501 0.00174219
0.0325 0.08 0.0175 -0.0113413 0.0352044 0.00192445
0.0375 0.08 0.0175 -0.00999779 0.0573755 0.00257687
0.0425 0.08 0.0175 -0.00706387 0.0699208 0.00364675
0.0475 0.08 0.0175 -0.00329889 0.076489 0.00421514
0.0525 0.08 0.0175 -7.81245e-05 0.0784378 0.00378316
0.0575 0.08 0.0175 0.00254031 0.0766642 0.0029929
0.0625 0.08 0.0175 0.00471698 0.0707197 0.00200646
0.0675 0.08 0.0175 0.00619571 0.0613326 0.000872473
0.0725 0.08 0.0175 0.00673726 0.0418307 0.000237209
0.0775 0.08 0.0175 0.00665801 0.00738379 9.23573e-05
0.0825 0.08 0.0175 0.00578098 -0.0358394 -0.000198022
0.0875 0.08 0.0175 0.00345241 -0.0778422 0.00161523
0.0925 0.08 0.0175 0.00193732 -0.113977 0.00411038
0.0975 0.08 0.0175 -0.00040944 -0.13977 0.00570176
