# UMean.air  FACE_DATA 80
#  x  y  z  UMean.air_x  UMean.air_y  UMean.air_z  
0.0025 0.63 0.0025 0.00238886 0.132616 -0.00243718
0.0075 0.63 0.0025 -0.00123135 0.161425 0.00218585
0.0125 0.63 0.0025 -0.0061789 0.163423 0.00209068
0.0175 0.63 0.0025 -0.00644174 0.164035 0.00215801
0.0225 0.63 0.0025 -0.00735351 0.165609 0.00278725
0.0275 0.63 0.0025 -0.00754334 0.165422 0.00305172
0.0325 0.63 0.0025 -0.00761618 0.164567 0.00363254
0.0375 0.63 0.0025 -0.00766479 0.164492 0.00407235
0.0425 0.63 0.0025 -0.00791695 0.166021 0.00440663
0.0475 0.63 0.0025 -0.00814421 0.168649 0.00455235
0.0525 0.63 0.0025 -0.00823049 0.172535 0.00445654
0.0575 0.63 0.0025 -0.00801142 0.17761 0.00409454
0.0625 0.63 0.0025 -0.00767425 0.183609 0.0035486
0.0675 0.63 0.0025 -0.0072096 0.190024 0.0029232
0.0725 0.63 0.0025 -0.00674958 0.195873 0.00226869
0.0775 0.63 0.0025 -0.00621651 0.201137 0.00160911
0.0825 0.63 0.0025 -0.0047613 0.203452 0.0010002
0.0875 0.63 0.0025 -0.0023567 0.204316 0.000307695
0.0925 0.63 0.0025 -0.00141385 0.197754 -8.84047e-06
0.0975 0.63 0.0025 -0.0013406 0.167674 -0.000708138
0.0025 0.63 0.0075 -0.000142736 0.217091 -0.00120232
0.0075 0.63 0.0075 -0.0018919 0.281942 0.00311842
0.0125 0.63 0.0075 -0.00406914 0.28528 0.00311642
0.0175 0.63 0.0075 -0.00455069 0.279733 0.00286978
0.0225 0.63 0.0075 -0.00531821 0.278751 0.00347004
0.0275 0.63 0.0075 -0.00488039 0.277458 0.00364098
0.0325 0.63 0.0075 -0.00404723 0.276312 0.00417712
0.0375 0.63 0.0075 -0.00304741 0.274525 0.00460481
0.0425 0.63 0.0075 -0.00225334 0.272681 0.00499184
0.0475 0.63 0.0075 -0.00149273 0.271806 0.00527401
0.0525 0.63 0.0075 -0.000769338 0.272497 0.00525896
0.0575 0.63 0.0075 -0.000101041 0.274967 0.00501994
0.0625 0.63 0.0075 0.000308924 0.279146 0.00458359
0.0675 0.63 0.0075 0.000454134 0.284859 0.00401852
0.0725 0.63 0.0075 0.000441254 0.291416 0.00348871
0.0775 0.63 0.0075 0.000307358 0.298644 0.00309949
0.0825 0.63 0.0075 -5.68162e-05 0.303853 0.00271315
0.0875 0.63 0.0075 -3.57616e-05 0.309647 0.00224302
0.0925 0.63 0.0075 -0.000658054 0.30802 0.0017529
0.0975 0.63 0.0075 -0.00060757 0.263366 -0.000425393
0.0025 0.63 0.0125 -0.000188378 0.216092 0.000569303
0.0075 0.63 0.0125 -0.00193097 0.281852 -0.00332249
0.0125 0.63 0.0125 -0.00415434 0.28512 -0.00316017
0.0175 0.63 0.0125 -0.00458962 0.279759 -0.00282882
0.0225 0.63 0.0125 -0.00535706 0.27871 -0.00333495
0.0275 0.63 0.0125 -0.00502921 0.277187 -0.00376711
0.0325 0.63 0.0125 -0.00430879 0.275864 -0.00435846
0.0375 0.63 0.0125 -0.0033277 0.274176 -0.0048137
0.0425 0.63 0.0125 -0.00238456 0.272659 -0.00497088
0.0475 0.63 0.0125 -0.0014534 0.27183 -0.00508241
0.0525 0.63 0.0125 -0.000741625 0.272193 -0.00513916
0.0575 0.63 0.0125 -0.000175058 0.274167 -0.00499061
0.0625 0.63 0.0125 0.000143379 0.278013 -0.00469456
0.0675 0.63 0.0125 0.00033774 0.283516 -0.00436192
0.0725 0.63 0.0125 0.000470175 0.289952 -0.00396166
0.0775 0.63 0.0125 0.000389123 0.29725 -0.00342057
0.0825 0.63 0.0125 -0.000133271 0.303102 -0.0025266
0.0875 0.63 0.0125 -6.56689e-05 0.309314 -0.00181726
0.0925 0.63 0.0125 -0.000685048 0.307311 -0.00139631
0.0975 0.63 0.0125 -0.000694955 0.262822 -0.00086846
0.0025 0.63 0.0175 0.00185873 0.138068 0.00196624
0.0075 0.63 0.0175 -0.00191472 0.167163 -0.00259538
0.0125 0.63 0.0175 -0.0066149 0.167612 -0.00223003
0.0175 0.63 0.0175 -0.00711064 0.167273 -0.00201503
0.0225 0.63 0.0175 -0.00803249 0.168281 -0.00252142
0.0275 0.63 0.0175 -0.00821423 0.167148 -0.0029812
0.0325 0.63 0.0175 -0.00849383 0.165769 -0.00368912
0.0375 0.63 0.0175 -0.00862894 0.165269 -0.00426814
0.0425 0.63 0.0175 -0.00848142 0.166327 -0.0044794
0.0475 0.63 0.0175 -0.00806321 0.168448 -0.00459157
0.0525 0.63 0.0175 -0.00783549 0.17185 -0.00452858
0.0575 0.63 0.0175 -0.0076057 0.176459 -0.00423409
0.0625 0.63 0.0175 -0.00742056 0.18172 -0.00376847
0.0675 0.63 0.0175 -0.00707586 0.187139 -0.0032778
0.0725 0.63 0.0175 -0.00660885 0.192292 -0.00263389
0.0775 0.63 0.0175 -0.00604469 0.197186 -0.00185001
0.0825 0.63 0.0175 -0.00497082 0.200077 -0.000888508
0.0875 0.63 0.0175 -0.00257693 0.200752 -6.42992e-05
0.0925 0.63 0.0175 -0.000512445 0.193427 0.000144616
0.0975 0.63 0.0175 -0.000459862 0.163942 -0.000494245
