# UMean.air  FACE_DATA 80
#  x  y  z  UMean.air_x  UMean.air_y  UMean.air_z  
0.0025 0.08 0.0025 0.00606756 0.0640923 -0.000649489
0.0075 0.08 0.0025 0.00628522 0.0843921 0.00431267
0.0125 0.08 0.0025 0.00151081 0.117307 0.00651048
0.0175 0.08 0.0025 -0.00332898 0.159951 0.00610228
0.0225 0.08 0.0025 -0.00554802 0.205432 0.00527634
0.0275 0.08 0.0025 -0.00543588 0.24723 0.00376772
0.0325 0.08 0.0025 -0.00490216 0.278518 0.00153094
0.0375 0.08 0.0025 -0.00444357 0.298345 2.71406e-05
0.0425 0.08 0.0025 -0.00504109 0.311638 -0.000256751
0.0475 0.08 0.0025 -0.00407574 0.321379 0.000119027
0.0525 0.08 0.0025 -0.0026158 0.325105 0.000220053
0.0575 0.08 0.0025 -0.00147268 0.325076 0.000181997
0.0625 0.08 0.0025 -0.000252627 0.322788 0.000193867
0.0675 0.08 0.0025 0.000806256 0.312319 0.000924123
0.0725 0.08 0.0025 0.00103273 0.287937 0.00146692
0.0775 0.08 0.0025 0.00301821 0.249401 0.00105567
0.0825 0.08 0.0025 0.00405076 0.202369 0.00181706
0.0875 0.08 0.0025 0.0028981 0.152759 0.00291403
0.0925 0.08 0.0025 -0.000122481 0.113102 0.00400164
0.0975 0.08 0.0025 -0.0040373 0.0844524 0.0015808
0.0025 0.08 0.0075 0.00270708 0.068315 0.00150902
0.0075 0.08 0.0075 -0.00104022 0.0975374 0.00831615
0.0125 0.08 0.0075 -0.0112914 0.134951 0.010599
0.0175 0.08 0.0075 -0.0147515 0.183424 0.010873
0.0225 0.08 0.0075 -0.0156043 0.234036 0.010005
0.0275 0.08 0.0075 -0.0130332 0.277739 0.00863387
0.0325 0.08 0.0075 -0.0103015 0.309593 0.00645268
0.0375 0.08 0.0075 -0.00819561 0.32964 0.00513096
0.0425 0.08 0.0075 -0.00760862 0.342175 0.00548443
0.0475 0.08 0.0075 -0.00586162 0.348775 0.00606172
0.0525 0.08 0.0075 -0.00363604 0.351133 0.00579445
0.0575 0.08 0.0075 -0.00135311 0.351233 0.00482169
0.0625 0.08 0.0075 0.000928518 0.348518 0.00391208
0.0675 0.08 0.0075 0.00418588 0.338536 0.00357027
0.0725 0.08 0.0075 0.00750466 0.314672 0.00359649
0.0775 0.08 0.0075 0.0116732 0.274453 0.00361675
0.0825 0.08 0.0075 0.0132838 0.220316 0.00477628
0.0875 0.08 0.0075 0.0133144 0.162557 0.00642095
0.0925 0.08 0.0075 0.00383722 0.118301 0.00961627
0.0975 0.08 0.0075 -0.000569948 0.087283 0.00710204
0.0025 0.08 0.0125 0.000523851 0.0700327 -0.0106755
0.0075 0.08 0.0125 -0.00448154 0.102015 -0.0087269
0.0125 0.08 0.0125 -0.0139331 0.140274 -0.00511534
0.0175 0.08 0.0125 -0.0160095 0.185087 -0.00365867
0.0225 0.08 0.0125 -0.0167823 0.232512 -0.00209937
0.0275 0.08 0.0125 -0.0149336 0.274396 -0.00152702
0.0325 0.08 0.0125 -0.0125695 0.305634 -0.000508707
0.0375 0.08 0.0125 -0.00956244 0.325194 0.00133017
0.0425 0.08 0.0125 -0.00817249 0.336373 0.00365597
0.0475 0.08 0.0125 -0.00604219 0.341268 0.00557831
0.0525 0.08 0.0125 -0.00360067 0.34274 0.0059643
0.0575 0.08 0.0125 -0.001356 0.342084 0.00494414
0.0625 0.08 0.0125 0.000942387 0.338514 0.00260583
0.0675 0.08 0.0125 0.00460611 0.329666 -0.000943107
0.0725 0.08 0.0125 0.00857166 0.307906 -0.00352734
0.0775 0.08 0.0125 0.01285 0.269429 -0.00493791
0.0825 0.08 0.0125 0.015094 0.218417 -0.00692793
0.0875 0.08 0.0125 0.0158487 0.164626 -0.00712994
0.0925 0.08 0.0125 0.00492302 0.120171 -0.00709634
0.0975 0.08 0.0125 -0.00026311 0.0888582 -0.00491207
0.0025 0.08 0.0175 0.00188817 0.0682671 -0.00149645
0.0075 0.08 0.0175 -0.00111433 0.091897 -0.00320424
0.0125 0.08 0.0175 -0.00293927 0.123769 -0.00299991
0.0175 0.08 0.0175 -0.00389284 0.159861 -0.00252973
0.0225 0.08 0.0175 -0.0055457 0.197911 -0.00126823
0.0275 0.08 0.0175 -0.00702933 0.234414 -0.000500485
0.0325 0.08 0.0175 -0.00840894 0.264925 0.000675242
0.0375 0.08 0.0175 -0.00723401 0.287614 0.00269182
0.0425 0.08 0.0175 -0.00514534 0.300508 0.00469636
0.0475 0.08 0.0175 -0.00260632 0.307201 0.00601902
0.0525 0.08 0.0175 -0.000786813 0.309121 0.00601025
0.0575 0.08 0.0175 0.000144545 0.307259 0.00511021
0.0625 0.08 0.0175 0.000476199 0.301457 0.00330155
0.0675 0.08 0.0175 0.00199253 0.291748 0.000840078
0.0725 0.08 0.0175 0.00305322 0.271689 -0.00111042
0.0775 0.08 0.0175 0.00375794 0.236708 -0.00226917
0.0825 0.08 0.0175 0.00422483 0.19334 -0.00378496
0.0875 0.08 0.0175 0.00232559 0.150429 -0.00283636
0.0925 0.08 0.0175 -0.00101101 0.113787 -0.00124148
0.0975 0.08 0.0175 -0.00289394 0.0877717 0.000423099
