# UMean.water  FACE_DATA 80
#  x  y  z  UMean.water_x  UMean.water_y  UMean.water_z  
0.0025 0.63 0.0025 -0.000866675 -0.0945587 -1.28789e-05
0.0075 0.63 0.0025 -0.00302147 -0.0655261 0.000245615
0.0125 0.63 0.0025 -0.00472105 -0.0637271 0.000133749
0.0175 0.63 0.0025 -0.00597778 -0.0632537 0.000361796
0.0225 0.63 0.0025 -0.00705966 -0.061747 0.000474229
0.0275 0.63 0.0025 -0.007491 -0.0620279 0.000597513
0.0325 0.63 0.0025 -0.0076557 -0.0629425 0.000766567
0.0375 0.63 0.0025 -0.00754729 -0.0630256 0.000870252
0.0425 0.63 0.0025 -0.00749096 -0.0614905 0.000916506
0.0475 0.63 0.0025 -0.00739365 -0.0588608 0.000856903
0.0525 0.63 0.0025 -0.00715352 -0.0550152 0.000761914
0.0575 0.63 0.0025 -0.00673259 -0.0499553 0.000622627
0.0625 0.63 0.0025 -0.00639098 -0.0439446 0.000434921
0.0675 0.63 0.0025 -0.00607216 -0.037499 0.000203679
0.0725 0.63 0.0025 -0.00583642 -0.0316307 -5.21223e-05
0.0775 0.63 0.0025 -0.00559009 -0.0264019 -0.000399061
0.0825 0.63 0.0025 -0.0047323 -0.0241135 -0.000671125
0.0875 0.63 0.0025 -0.00389984 -0.0231939 -0.00120416
0.0925 0.63 0.0025 -0.00235755 -0.0297547 -0.00127704
0.0975 0.63 0.0025 -0.00112356 -0.0600131 -0.000922461
0.0025 0.63 0.0075 -0.0013728 -0.00943419 0.000865615
0.0075 0.63 0.0075 -0.00284945 0.0562418 0.00100144
0.0125 0.63 0.0075 -0.00431892 0.059293 0.000993708
0.0175 0.63 0.0075 -0.00517451 0.0534246 0.00101568
0.0225 0.63 0.0075 -0.00555817 0.052335 0.00107724
0.0275 0.63 0.0075 -0.00524694 0.0509082 0.00108274
0.0325 0.63 0.0075 -0.00457218 0.0497401 0.001163
0.0375 0.63 0.0075 -0.00366458 0.0479481 0.00125255
0.0425 0.63 0.0075 -0.00277134 0.0460944 0.00135968
0.0475 0.63 0.0075 -0.0018208 0.0452068 0.00137063
0.0525 0.63 0.0075 -0.000884709 0.0458869 0.0013518
0.0575 0.63 0.0075 1.12307e-05 0.0483601 0.00132648
0.0625 0.63 0.0075 0.000690889 0.0525529 0.00129223
0.0675 0.63 0.0075 0.00112361 0.058291 0.00121144
0.0725 0.63 0.0075 0.00132787 0.0648843 0.00114314
0.0775 0.63 0.0075 0.00119177 0.0721691 0.00098231
0.0825 0.63 0.0075 0.000831192 0.0773471 0.000850254
0.0875 0.63 0.0075 0.000149453 0.083168 0.000486874
0.0925 0.63 0.0075 -0.00060804 0.0814121 0.000193981
0.0975 0.63 0.0075 -0.000300938 0.0360784 -0.000360222
0.0025 0.63 0.0125 -0.00146878 -0.0104756 -0.00113303
0.0075 0.63 0.0125 -0.00289148 0.0561157 -0.00127681
0.0125 0.63 0.0125 -0.00437054 0.0591302 -0.00102169
0.0175 0.63 0.0125 -0.00524348 0.0534632 -0.000885268
0.0225 0.63 0.0125 -0.00567933 0.0523125 -0.000896183
0.0275 0.63 0.0125 -0.00544582 0.050647 -0.00099611
0.0325 0.63 0.0125 -0.00480899 0.049279 -0.00110589
0.0375 0.63 0.0125 -0.00386443 0.0475817 -0.00116849
0.0425 0.63 0.0125 -0.00283481 0.0460635 -0.00119782
0.0475 0.63 0.0125 -0.00177425 0.0452401 -0.00128392
0.0525 0.63 0.0125 -0.000898676 0.0456029 -0.00140931
0.0575 0.63 0.0125 -0.000130265 0.047562 -0.00150631
0.0625 0.63 0.0125 0.000437628 0.0513994 -0.00152735
0.0675 0.63 0.0125 0.000888849 0.056894 -0.00150052
0.0725 0.63 0.0125 0.00123943 0.0633609 -0.00139658
0.0775 0.63 0.0125 0.00124115 0.0707399 -0.00115678
0.0825 0.63 0.0125 0.000833625 0.0766159 -0.000709043
0.0875 0.63 0.0125 0.000127442 0.0828561 -0.000290196
0.0925 0.63 0.0125 -0.00064802 0.0807431 4.77081e-05
0.0975 0.63 0.0125 -0.000322889 0.0355681 0.000472351
0.0025 0.63 0.0175 -0.0011763 -0.0889924 -0.000289893
0.0075 0.63 0.0175 -0.00367985 -0.0597859 -0.000582996
0.0125 0.63 0.0175 -0.00551728 -0.0594879 -0.000141253
0.0175 0.63 0.0175 -0.00698212 -0.0599363 -0.00017759
0.0225 0.63 0.0175 -0.00803255 -0.0590135 -0.000237871
0.0275 0.63 0.0175 -0.00843179 -0.0602439 -0.000420115
0.0325 0.63 0.0175 -0.00869073 -0.0616883 -0.000642316
0.0375 0.63 0.0175 -0.0085543 -0.0622647 -0.000855398
0.0425 0.63 0.0175 -0.00814189 -0.061288 -0.000945494
0.0475 0.63 0.0175 -0.00750157 -0.0591865 -0.000949181
0.0525 0.63 0.0175 -0.00701864 -0.0557738 -0.000890723
0.0575 0.63 0.0175 -0.0065823 -0.0511421 -0.000762507
0.0625 0.63 0.0175 -0.00635322 -0.0458657 -0.000579008
0.0675 0.63 0.0175 -0.00613695 -0.0404532 -0.000422636
0.0725 0.63 0.0175 -0.00590148 -0.0352809 -0.000125668
0.0775 0.63 0.0175 -0.00560756 -0.0303314 0.000355987
0.0825 0.63 0.0175 -0.00507209 -0.0273916 0.000856761
0.0875 0.63 0.0175 -0.00425402 -0.0266953 0.00137719
0.0925 0.63 0.0175 -0.00285136 -0.0340534 0.00144349
0.0975 0.63 0.0175 -0.0014166 -0.0637429 0.000802967
