# alphaMean.air  FACE_DATA 80
#  x  y  z  alphaMean.air
0.0025 0.08 0.0025 0.00898297
0.0075 0.08 0.0025 0.00908785
0.0125 0.08 0.0025 0.00742559
0.0175 0.08 0.0025 0.00773496
0.0225 0.08 0.0025 0.0131004
0.0275 0.08 0.0025 0.0220286
0.0325 0.08 0.0025 0.0283893
0.0375 0.08 0.0025 0.0266626
0.0425 0.08 0.0025 0.0245369
0.0475 0.08 0.0025 0.0233207
0.0525 0.08 0.0025 0.0239209
0.0575 0.08 0.0025 0.0273267
0.0625 0.08 0.0025 0.0314181
0.0675 0.08 0.0025 0.0331166
0.0725 0.08 0.0025 0.0264278
0.0775 0.08 0.0025 0.0168891
0.0825 0.08 0.0025 0.0106094
0.0875 0.08 0.0025 0.00917633
0.0925 0.08 0.0025 0.0094765
0.0975 0.08 0.0025 0.00951823
0.0025 0.08 0.0075 0.0150341
0.0075 0.08 0.0075 0.0228363
0.0125 0.08 0.0075 0.0142608
0.0175 0.08 0.0075 0.0106869
0.0225 0.08 0.0075 0.0190929
0.0275 0.08 0.0075 0.0358283
0.0325 0.08 0.0075 0.0480955
0.0375 0.08 0.0075 0.047566
0.0425 0.08 0.0075 0.043607
0.0475 0.08 0.0075 0.0429494
0.0525 0.08 0.0075 0.0441127
0.0575 0.08 0.0075 0.0488367
0.0625 0.08 0.0075 0.0543899
0.0675 0.08 0.0075 0.0529877
0.0725 0.08 0.0075 0.038091
0.0775 0.08 0.0075 0.021229
0.0825 0.08 0.0075 0.0133416
0.0875 0.08 0.0075 0.0162635
0.0925 0.08 0.0075 0.0228369
0.0975 0.08 0.0075 0.0156625
0.0025 0.08 0.0125 0.0149158
0.0075 0.08 0.0125 0.0234345
0.0125 0.08 0.0125 0.0158602
0.0175 0.08 0.0125 0.0124653
0.0225 0.08 0.0125 0.0220995
0.0275 0.08 0.0125 0.0381786
0.0325 0.08 0.0125 0.0493019
0.0375 0.08 0.0125 0.0483787
0.0425 0.08 0.0125 0.0449429
0.0475 0.08 0.0125 0.0440531
0.0525 0.08 0.0125 0.0450454
0.0575 0.08 0.0125 0.048597
0.0625 0.08 0.0125 0.0534622
0.0675 0.08 0.0125 0.0505946
0.0725 0.08 0.0125 0.0346737
0.0775 0.08 0.0125 0.0185608
0.0825 0.08 0.0125 0.0117778
0.0875 0.08 0.0125 0.015225
0.0925 0.08 0.0125 0.0225301
0.0975 0.08 0.0125 0.0161943
0.0025 0.08 0.0175 0.00917483
0.0075 0.08 0.0175 0.00947562
0.0125 0.08 0.0175 0.00867873
0.0175 0.08 0.0175 0.010191
0.0225 0.08 0.0175 0.0168269
0.0275 0.08 0.0175 0.0256191
0.0325 0.08 0.0175 0.0307135
0.0375 0.08 0.0175 0.0289973
0.0425 0.08 0.0175 0.0263449
0.0475 0.08 0.0175 0.0254971
0.0525 0.08 0.0175 0.0258659
0.0575 0.08 0.0175 0.0280037
0.0625 0.08 0.0175 0.030662
0.0675 0.08 0.0175 0.0297698
0.0725 0.08 0.0175 0.0220416
0.0775 0.08 0.0175 0.0131967
0.0825 0.08 0.0175 0.00890929
0.0875 0.08 0.0175 0.0092949
0.0925 0.08 0.0175 0.010531
0.0975 0.08 0.0175 0.0107255
