# alphaMean.water  FACE_DATA 80
#  x  y  z  alphaMean.water
0.0025 0.08 0.0025 0.991017
0.0075 0.08 0.0025 0.990912
0.0125 0.08 0.0025 0.992574
0.0175 0.08 0.0025 0.992265
0.0225 0.08 0.0025 0.9869
0.0275 0.08 0.0025 0.977971
0.0325 0.08 0.0025 0.971611
0.0375 0.08 0.0025 0.973337
0.0425 0.08 0.0025 0.975463
0.0475 0.08 0.0025 0.976679
0.0525 0.08 0.0025 0.976079
0.0575 0.08 0.0025 0.972673
0.0625 0.08 0.0025 0.968582
0.0675 0.08 0.0025 0.966883
0.0725 0.08 0.0025 0.973572
0.0775 0.08 0.0025 0.983111
0.0825 0.08 0.0025 0.989391
0.0875 0.08 0.0025 0.990824
0.0925 0.08 0.0025 0.990523
0.0975 0.08 0.0025 0.990482
0.0025 0.08 0.0075 0.984966
0.0075 0.08 0.0075 0.977164
0.0125 0.08 0.0075 0.985739
0.0175 0.08 0.0075 0.989313
0.0225 0.08 0.0075 0.980907
0.0275 0.08 0.0075 0.964172
0.0325 0.08 0.0075 0.951905
0.0375 0.08 0.0075 0.952434
0.0425 0.08 0.0075 0.956393
0.0475 0.08 0.0075 0.957051
0.0525 0.08 0.0075 0.955887
0.0575 0.08 0.0075 0.951163
0.0625 0.08 0.0075 0.94561
0.0675 0.08 0.0075 0.947012
0.0725 0.08 0.0075 0.961909
0.0775 0.08 0.0075 0.978771
0.0825 0.08 0.0075 0.986658
0.0875 0.08 0.0075 0.983737
0.0925 0.08 0.0075 0.977163
0.0975 0.08 0.0075 0.984337
0.0025 0.08 0.0125 0.985084
0.0075 0.08 0.0125 0.976565
0.0125 0.08 0.0125 0.98414
0.0175 0.08 0.0125 0.987535
0.0225 0.08 0.0125 0.977901
0.0275 0.08 0.0125 0.961821
0.0325 0.08 0.0125 0.950698
0.0375 0.08 0.0125 0.951621
0.0425 0.08 0.0125 0.955057
0.0475 0.08 0.0125 0.955947
0.0525 0.08 0.0125 0.954955
0.0575 0.08 0.0125 0.951403
0.0625 0.08 0.0125 0.946538
0.0675 0.08 0.0125 0.949405
0.0725 0.08 0.0125 0.965326
0.0775 0.08 0.0125 0.981439
0.0825 0.08 0.0125 0.988222
0.0875 0.08 0.0125 0.984775
0.0925 0.08 0.0125 0.97747
0.0975 0.08 0.0125 0.983806
0.0025 0.08 0.0175 0.990825
0.0075 0.08 0.0175 0.990524
0.0125 0.08 0.0175 0.991321
0.0175 0.08 0.0175 0.989809
0.0225 0.08 0.0175 0.983173
0.0275 0.08 0.0175 0.974381
0.0325 0.08 0.0175 0.969286
0.0375 0.08 0.0175 0.971003
0.0425 0.08 0.0175 0.973655
0.0475 0.08 0.0175 0.974503
0.0525 0.08 0.0175 0.974134
0.0575 0.08 0.0175 0.971996
0.0625 0.08 0.0175 0.969338
0.0675 0.08 0.0175 0.97023
0.0725 0.08 0.0175 0.977958
0.0775 0.08 0.0175 0.986803
0.0825 0.08 0.0175 0.991091
0.0875 0.08 0.0175 0.990705
0.0925 0.08 0.0175 0.989469
0.0975 0.08 0.0175 0.989274
