# alphaMean.air  FACE_DATA 80
#  x  y  z  alphaMean.air
0.0025 0.63 0.0025 0.036141
0.0075 0.63 0.0025 0.0366357
0.0125 0.63 0.0025 0.037811
0.0175 0.63 0.0025 0.0402257
0.0225 0.63 0.0025 0.0426917
0.0275 0.63 0.0025 0.0452369
0.0325 0.63 0.0025 0.0477728
0.0375 0.63 0.0025 0.0499743
0.0425 0.63 0.0025 0.051643
0.0475 0.63 0.0025 0.0524264
0.0525 0.63 0.0025 0.0522182
0.0575 0.63 0.0025 0.0510549
0.0625 0.63 0.0025 0.0492609
0.0675 0.63 0.0025 0.0470779
0.0725 0.63 0.0025 0.0447142
0.0775 0.63 0.0025 0.0422932
0.0825 0.63 0.0025 0.0398278
0.0875 0.63 0.0025 0.0377502
0.0925 0.63 0.0025 0.0366012
0.0975 0.63 0.0025 0.0352122
0.0025 0.63 0.0075 0.0406739
0.0075 0.63 0.0075 0.0475343
0.0125 0.63 0.0075 0.0430154
0.0175 0.63 0.0075 0.0414849
0.0225 0.63 0.0075 0.0410187
0.0275 0.63 0.0075 0.0406736
0.0325 0.63 0.0075 0.0408311
0.0375 0.63 0.0075 0.0413023
0.0425 0.63 0.0075 0.0418268
0.0475 0.63 0.0075 0.0421468
0.0525 0.63 0.0075 0.042274
0.0575 0.63 0.0075 0.042172
0.0625 0.63 0.0075 0.0418962
0.0675 0.63 0.0075 0.0416538
0.0725 0.63 0.0075 0.0416591
0.0775 0.63 0.0075 0.0419702
0.0825 0.63 0.0075 0.0423736
0.0875 0.63 0.0075 0.0439552
0.0925 0.63 0.0075 0.0478543
0.0975 0.63 0.0075 0.0401406
0.0025 0.63 0.0125 0.0407209
0.0075 0.63 0.0125 0.0482213
0.0125 0.63 0.0125 0.0440702
0.0175 0.63 0.0125 0.0424543
0.0225 0.63 0.0125 0.0419062
0.0275 0.63 0.0125 0.0414786
0.0325 0.63 0.0125 0.0415055
0.0375 0.63 0.0125 0.0418432
0.0425 0.63 0.0125 0.0423131
0.0475 0.63 0.0125 0.0425469
0.0525 0.63 0.0125 0.0424418
0.0575 0.63 0.0125 0.0421389
0.0625 0.63 0.0125 0.041724
0.0675 0.63 0.0125 0.0414128
0.0725 0.63 0.0125 0.0413309
0.0775 0.63 0.0125 0.0415685
0.0825 0.63 0.0125 0.0419146
0.0875 0.63 0.0125 0.0432493
0.0925 0.63 0.0125 0.0472515
0.0975 0.63 0.0125 0.0404409
0.0025 0.63 0.0175 0.0359109
0.0075 0.63 0.0175 0.0369106
0.0125 0.63 0.0175 0.0382327
0.0175 0.63 0.0175 0.0407505
0.0225 0.63 0.0175 0.0433766
0.0275 0.63 0.0175 0.0458084
0.0325 0.63 0.0175 0.0480651
0.0375 0.63 0.0175 0.0501451
0.0425 0.63 0.0175 0.0516201
0.0475 0.63 0.0175 0.0522329
0.0525 0.63 0.0175 0.0518974
0.0575 0.63 0.0175 0.0507368
0.0625 0.63 0.0175 0.0489043
0.0675 0.63 0.0175 0.0466258
0.0725 0.63 0.0175 0.0442079
0.0775 0.63 0.0175 0.0419007
0.0825 0.63 0.0175 0.0394892
0.0875 0.63 0.0175 0.0373454
0.0925 0.63 0.0175 0.0366136
0.0975 0.63 0.0175 0.0357459
