# alphaMean.water  FACE_DATA 80
#  x  y  z  alphaMean.water
0.0025 0.63 0.0025 0.963859
0.0075 0.63 0.0025 0.963364
0.0125 0.63 0.0025 0.962189
0.0175 0.63 0.0025 0.959774
0.0225 0.63 0.0025 0.957308
0.0275 0.63 0.0025 0.954763
0.0325 0.63 0.0025 0.952227
0.0375 0.63 0.0025 0.950026
0.0425 0.63 0.0025 0.948357
0.0475 0.63 0.0025 0.947574
0.0525 0.63 0.0025 0.947782
0.0575 0.63 0.0025 0.948945
0.0625 0.63 0.0025 0.950739
0.0675 0.63 0.0025 0.952922
0.0725 0.63 0.0025 0.955286
0.0775 0.63 0.0025 0.957707
0.0825 0.63 0.0025 0.960172
0.0875 0.63 0.0025 0.96225
0.0925 0.63 0.0025 0.963399
0.0975 0.63 0.0025 0.964788
0.0025 0.63 0.0075 0.959326
0.0075 0.63 0.0075 0.952466
0.0125 0.63 0.0075 0.956985
0.0175 0.63 0.0075 0.958515
0.0225 0.63 0.0075 0.958981
0.0275 0.63 0.0075 0.959326
0.0325 0.63 0.0075 0.959169
0.0375 0.63 0.0075 0.958698
0.0425 0.63 0.0075 0.958173
0.0475 0.63 0.0075 0.957853
0.0525 0.63 0.0075 0.957726
0.0575 0.63 0.0075 0.957828
0.0625 0.63 0.0075 0.958104
0.0675 0.63 0.0075 0.958346
0.0725 0.63 0.0075 0.958341
0.0775 0.63 0.0075 0.95803
0.0825 0.63 0.0075 0.957626
0.0875 0.63 0.0075 0.956045
0.0925 0.63 0.0075 0.952146
0.0975 0.63 0.0075 0.959859
0.0025 0.63 0.0125 0.959279
0.0075 0.63 0.0125 0.951779
0.0125 0.63 0.0125 0.95593
0.0175 0.63 0.0125 0.957546
0.0225 0.63 0.0125 0.958094
0.0275 0.63 0.0125 0.958521
0.0325 0.63 0.0125 0.958494
0.0375 0.63 0.0125 0.958157
0.0425 0.63 0.0125 0.957687
0.0475 0.63 0.0125 0.957453
0.0525 0.63 0.0125 0.957558
0.0575 0.63 0.0125 0.957861
0.0625 0.63 0.0125 0.958276
0.0675 0.63 0.0125 0.958587
0.0725 0.63 0.0125 0.958669
0.0775 0.63 0.0125 0.958431
0.0825 0.63 0.0125 0.958085
0.0875 0.63 0.0125 0.956751
0.0925 0.63 0.0125 0.952749
0.0975 0.63 0.0125 0.959559
0.0025 0.63 0.0175 0.964089
0.0075 0.63 0.0175 0.963089
0.0125 0.63 0.0175 0.961767
0.0175 0.63 0.0175 0.959249
0.0225 0.63 0.0175 0.956623
0.0275 0.63 0.0175 0.954192
0.0325 0.63 0.0175 0.951935
0.0375 0.63 0.0175 0.949855
0.0425 0.63 0.0175 0.94838
0.0475 0.63 0.0175 0.947767
0.0525 0.63 0.0175 0.948103
0.0575 0.63 0.0175 0.949263
0.0625 0.63 0.0175 0.951096
0.0675 0.63 0.0175 0.953374
0.0725 0.63 0.0175 0.955792
0.0775 0.63 0.0175 0.958099
0.0825 0.63 0.0175 0.960511
0.0875 0.63 0.0175 0.962655
0.0925 0.63 0.0175 0.963386
0.0975 0.63 0.0175 0.964254
