# UMean.water  FACE_DATA 80
#  x  y  z  UMean.water_x  UMean.water_y  UMean.water_z  
0.0025 0.63 0.0025 0.000162399 -0.0658902 -0.00103216
0.0075 0.63 0.0025 -0.00116895 -0.0509964 0.000510177
0.0125 0.63 0.0025 -0.00290146 -0.0341461 0.000766968
0.0175 0.63 0.0025 -0.0040705 -0.0133297 0.000485195
0.0225 0.63 0.0025 -0.00492062 0.00878351 0.000440699
0.0275 0.63 0.0025 -0.00574921 0.028674 0.000190226
0.0325 0.63 0.0025 -0.00640544 0.044557 -0.000171308
0.0375 0.63 0.0025 -0.00660057 0.0561438 -0.000393988
0.0425 0.63 0.0025 -0.00632158 0.0633378 -0.00052206
0.0475 0.63 0.0025 -0.00563186 0.0647844 -0.000657845
0.0525 0.63 0.0025 -0.00454152 0.0607804 -0.000788975
0.0575 0.63 0.0025 -0.00322466 0.0522582 -0.000912899
0.0625 0.63 0.0025 -0.00181446 0.0396488 -0.00100595
0.0675 0.63 0.0025 -0.00029233 0.0238324 -0.00101722
0.0725 0.63 0.0025 0.000725501 0.00631695 -0.000826735
0.0775 0.63 0.0025 0.0010293 -0.0118035 -0.000523024
0.0825 0.63 0.0025 0.00116948 -0.0303346 -0.000307059
0.0875 0.63 0.0025 0.00104247 -0.0472324 -0.000273328
0.0925 0.63 0.0025 0.000488004 -0.0619477 6.09117e-05
0.0975 0.63 0.0025 -0.000213169 -0.079203 -0.000673862
0.0025 0.63 0.0075 -0.000926051 -0.0442435 -0.000493374
0.0075 0.63 0.0075 -0.00232535 -0.024972 0.000686564
0.0125 0.63 0.0075 -0.00325258 -0.0206699 0.000912845
0.0175 0.63 0.0075 -0.00382448 -0.0120785 0.000945233
0.0225 0.63 0.0075 -0.00424121 8.7434e-05 0.00121959
0.0275 0.63 0.0075 -0.00447124 0.0122289 0.00109855
0.0325 0.63 0.0075 -0.00478123 0.0231633 0.000667117
0.0375 0.63 0.0075 -0.0048897 0.0319568 0.000245486
0.0425 0.63 0.0075 -0.00466631 0.0377562 -0.000136775
0.0475 0.63 0.0075 -0.00414635 0.0392938 -0.00050299
0.0525 0.63 0.0075 -0.00329475 0.0362757 -0.000732086
0.0575 0.63 0.0075 -0.00218319 0.0289829 -0.000834853
0.0625 0.63 0.0075 -0.000966317 0.0181658 -0.000848778
0.0675 0.63 0.0075 0.000181376 0.00523952 -0.000771046
0.0725 0.63 0.0075 0.000964672 -0.00765127 -0.00054641
0.0775 0.63 0.0075 0.00131076 -0.0190441 -0.000274646
0.0825 0.63 0.0075 0.00143092 -0.0286142 -0.000168985
0.0875 0.63 0.0075 0.00130317 -0.0351697 -9.25352e-05
0.0925 0.63 0.0075 0.000890675 -0.0395289 0.000275652
0.0975 0.63 0.0075 0.000673137 -0.0591544 -7.51315e-05
0.0025 0.63 0.0125 -0.000833706 -0.0423969 -0.000148914
0.0075 0.63 0.0125 -0.00226121 -0.0214495 -0.000448975
0.0125 0.63 0.0125 -0.00299628 -0.0163222 -0.000309353
0.0175 0.63 0.0125 -0.00355731 -0.00804605 0.000111274
0.0225 0.63 0.0125 -0.00416503 0.00269636 0.000839772
0.0275 0.63 0.0125 -0.00453164 0.0133277 0.000976296
0.0325 0.63 0.0125 -0.00476692 0.0234096 0.000609734
0.0375 0.63 0.0125 -0.00475871 0.0319957 0.000161863
0.0425 0.63 0.0125 -0.00449826 0.0381173 -0.000224154
0.0475 0.63 0.0125 -0.00402613 0.0403302 -0.000497409
0.0525 0.63 0.0125 -0.0033803 0.0377413 -0.000660676
0.0575 0.63 0.0125 -0.00243598 0.0304254 -0.000738956
0.0625 0.63 0.0125 -0.0012641 0.0190232 -0.000741442
0.0675 0.63 0.0125 5.26402e-05 0.00508834 -0.000673245
0.0725 0.63 0.0125 0.00111214 -0.00895231 -0.000467716
0.0775 0.63 0.0125 0.0015232 -0.0207845 -0.000338185
0.0825 0.63 0.0125 0.00150109 -0.0301716 -0.000515023
0.0875 0.63 0.0125 0.00118113 -0.0366204 -0.000520362
0.0925 0.63 0.0125 0.000773347 -0.0405221 -0.000256294
0.0975 0.63 0.0125 0.000583673 -0.0582967 0.000426131
0.0025 0.63 0.0175 0.000176975 -0.0626143 0.000418603
0.0075 0.63 0.0175 -0.00124118 -0.0443121 -0.000511978
0.0125 0.63 0.0175 -0.00238837 -0.0274185 -0.000567971
0.0175 0.63 0.0175 -0.00385893 -0.00754559 -5.11578e-05
0.0225 0.63 0.0175 -0.00497692 0.0115487 0.000687088
0.0275 0.63 0.0175 -0.0055422 0.0282586 0.000918388
0.0325 0.63 0.0175 -0.00581305 0.042672 0.000766111
0.0375 0.63 0.0175 -0.00574066 0.0543534 0.000505321
0.0425 0.63 0.0175 -0.00546787 0.0623697 0.000246571
0.0475 0.63 0.0175 -0.00503508 0.0657727 7.3484e-05
0.0525 0.63 0.0175 -0.00444633 0.0637161 2.79225e-05
0.0575 0.63 0.0175 -0.00346941 0.0557271 2.1512e-05
0.0625 0.63 0.0175 -0.00221238 0.0421715 3.75042e-05
0.0675 0.63 0.0175 -0.000729447 0.0242113 0.000141035
0.0725 0.63 0.0175 0.000946785 0.00387887 0.000287268
0.0775 0.63 0.0175 0.0017598 -0.0155448 0.000172381
0.0825 0.63 0.0175 0.00162427 -0.0333164 -0.000117092
0.0875 0.63 0.0175 0.000739009 -0.0492882 -0.000109726
0.0925 0.63 0.0175 6.95009e-05 -0.0626572 -8.47127e-05
0.0975 0.63 0.0175 -0.000596287 -0.0770447 0.000754192
