# UMean.air  FACE_DATA 80
#  x  y  z  UMean.air_x  UMean.air_y  UMean.air_z  
0.0025 0.08 0.0025 0.00527741 0.0583624 -0.00138982
0.0075 0.08 0.0025 0.00765139 0.0934195 0.00118441
0.0125 0.08 0.0025 0.00793536 0.135786 0.000781582
0.0175 0.08 0.0025 0.00782598 0.181659 0.000511198
0.0225 0.08 0.0025 0.00820451 0.227979 -0.00107216
0.0275 0.08 0.0025 0.00866117 0.266334 -0.00290663
0.0325 0.08 0.0025 0.00869075 0.288157 -0.00504914
0.0375 0.08 0.0025 0.00668391 0.296121 -0.00571737
0.0425 0.08 0.0025 0.00139283 0.300858 -0.00489411
0.0475 0.08 0.0025 -0.00397086 0.305265 -0.00387705
0.0525 0.08 0.0025 -0.00900137 0.307489 -0.00362364
0.0575 0.08 0.0025 -0.0117629 0.310315 -0.00431693
0.0625 0.08 0.0025 -0.0119542 0.312035 -0.00544937
0.0675 0.08 0.0025 -0.00853051 0.306711 -0.00546596
0.0725 0.08 0.0025 -0.00493736 0.283521 -0.00403658
0.0775 0.08 0.0025 -0.00231199 0.244255 -0.00212388
0.0825 0.08 0.0025 -0.000802739 0.197769 0.000629688
0.0875 0.08 0.0025 -0.00199791 0.152756 0.00172504
0.0925 0.08 0.0025 -0.00280737 0.109555 0.00277861
0.0975 0.08 0.0025 -0.00308369 0.07136 0.00145709
0.0025 0.08 0.0075 0.00405491 0.0762959 0.000692317
0.0075 0.08 0.0075 0.00657514 0.115301 0.00250753
0.0125 0.08 0.0075 0.00232742 0.153712 0.00127549
0.0175 0.08 0.0075 0.00169471 0.201459 0.000603323
0.0225 0.08 0.0075 0.00206794 0.253872 -0.000448757
0.0275 0.08 0.0075 0.00444709 0.29783 -0.00216357
0.0325 0.08 0.0075 0.00700391 0.325267 -0.00433932
0.0375 0.08 0.0075 0.00727658 0.334868 -0.00475426
0.0425 0.08 0.0075 0.00300033 0.337836 -0.00356529
0.0475 0.08 0.0075 -0.00330203 0.341546 -0.00236134
0.0525 0.08 0.0075 -0.00970823 0.344935 -0.00198931
0.0575 0.08 0.0075 -0.0138741 0.349065 -0.00277729
0.0625 0.08 0.0075 -0.0148481 0.351906 -0.00407652
0.0675 0.08 0.0075 -0.0109388 0.342168 -0.00430568
0.0725 0.08 0.0075 -0.00653046 0.309786 -0.00328386
0.0775 0.08 0.0075 -0.0036658 0.259203 -0.000440259
0.0825 0.08 0.0075 -0.00397533 0.204455 0.00356807
0.0875 0.08 0.0075 -0.0051622 0.158408 0.00647236
0.0925 0.08 0.0075 -0.00733104 0.120396 0.00944428
0.0975 0.08 0.0075 -0.00416271 0.0820208 0.00873201
0.0025 0.08 0.0125 0.00297957 0.0807924 -0.00405027
0.0075 0.08 0.0125 0.00479314 0.121666 -0.00761556
0.0125 0.08 0.0125 -0.000500975 0.162154 -0.00754255
0.0175 0.08 0.0125 -0.00124654 0.211525 -0.00617598
0.0225 0.08 0.0125 -0.000279778 0.262917 -0.00300647
0.0275 0.08 0.0125 0.00162493 0.305233 -0.00161627
0.0325 0.08 0.0125 0.00348059 0.331123 -0.00113166
0.0375 0.08 0.0125 0.00366983 0.338941 -0.0017384
0.0425 0.08 0.0125 -0.000428458 0.340897 -0.00239934
0.0475 0.08 0.0125 -0.00713371 0.344402 -0.00220704
0.0525 0.08 0.0125 -0.0142425 0.347582 -0.00148368
0.0575 0.08 0.0125 -0.0186253 0.34947 -0.000506547
0.0625 0.08 0.0125 -0.0190408 0.350125 0.000325514
0.0675 0.08 0.0125 -0.0154814 0.338449 5.31573e-05
0.0725 0.08 0.0125 -0.010519 0.303267 -0.00153799
0.0775 0.08 0.0125 -0.00676494 0.249221 -0.00227603
0.0825 0.08 0.0125 -0.00814962 0.193587 -0.00279635
0.0875 0.08 0.0125 -0.0101898 0.149183 -0.00181843
0.0925 0.08 0.0125 -0.0124164 0.114489 -0.00120014
0.0975 0.08 0.0125 -0.00658563 0.079985 0.00253279
0.0025 0.08 0.0175 0.00431343 0.0686782 0.00037528
0.0075 0.08 0.0175 0.00487799 0.107664 -0.00315662
0.0125 0.08 0.0175 0.00263748 0.151892 -0.00293813
0.0175 0.08 0.0175 0.000939738 0.19895 -0.00255343
0.0225 0.08 0.0175 0.0016914 0.245045 -3.16534e-06
0.0275 0.08 0.0175 0.00298438 0.280185 0.001964
0.0325 0.08 0.0175 0.00344365 0.298709 0.0032733
0.0375 0.08 0.0175 0.00218134 0.302961 0.00298586
0.0425 0.08 0.0175 -0.00274046 0.307554 0.00203495
0.0475 0.08 0.0175 -0.00949067 0.31436 0.00188046
0.0525 0.08 0.0175 -0.0157165 0.31757 0.00260073
0.0575 0.08 0.0175 -0.0192073 0.316748 0.00390506
0.0625 0.08 0.0175 -0.0201903 0.314143 0.00476711
0.0675 0.08 0.0175 -0.0180256 0.304071 0.00410289
0.0725 0.08 0.0175 -0.0141292 0.275084 0.00218465
0.0775 0.08 0.0175 -0.0114989 0.227973 0.000298266
0.0825 0.08 0.0175 -0.0129983 0.177192 -0.00153886
0.0875 0.08 0.0175 -0.015618 0.131111 -0.000273951
0.0925 0.08 0.0175 -0.0147455 0.0926462 0.000968885
0.0975 0.08 0.0175 -0.00868772 0.0621912 0.00326889
