# UMean.air  FACE_DATA 80
#  x  y  z  UMean.air_x  UMean.air_y  UMean.air_z  
0.0025 0.63 0.0025 -0.000109479 0.157497 -0.00127791
0.0075 0.63 0.0025 -0.00229651 0.172465 0.000705729
0.0125 0.63 0.0025 -0.0044939 0.189353 0.00105411
0.0175 0.63 0.0025 -0.00578404 0.210071 0.00102354
0.0225 0.63 0.0025 -0.00678313 0.232071 0.000987798
0.0275 0.63 0.0025 -0.00745383 0.251796 0.000589924
0.0325 0.63 0.0025 -0.00779315 0.267548 -2.14638e-05
0.0375 0.63 0.0025 -0.00759408 0.279107 -0.000469661
0.0425 0.63 0.0025 -0.00679452 0.28626 -0.000774787
0.0475 0.63 0.0025 -0.00561201 0.287762 -0.000930699
0.0525 0.63 0.0025 -0.00421068 0.283884 -0.000921323
0.0575 0.63 0.0025 -0.00274441 0.275473 -0.000851851
0.0625 0.63 0.0025 -0.00120562 0.263025 -0.000688365
0.0675 0.63 0.0025 0.000394436 0.247293 -0.00042956
0.0725 0.63 0.0025 0.00144683 0.229763 -0.000102524
0.0775 0.63 0.0025 0.00173968 0.211684 0.000248466
0.0825 0.63 0.0025 0.00187542 0.193298 0.000410949
0.0875 0.63 0.0025 0.00185424 0.176359 0.000263031
0.0925 0.63 0.0025 0.00101376 0.16168 0.000442964
0.0975 0.63 0.0025 -0.000231388 0.144512 -0.000854004
0.0025 0.63 0.0075 -0.000534754 0.178933 -0.000836488
0.0075 0.63 0.0075 -0.00231318 0.197893 0.000562759
0.0125 0.63 0.0075 -0.00398496 0.202427 0.000955805
0.0175 0.63 0.0075 -0.00461892 0.211178 0.00130676
0.0225 0.63 0.0075 -0.00527093 0.223462 0.00170931
0.0275 0.63 0.0075 -0.00547956 0.235642 0.00150629
0.0325 0.63 0.0075 -0.00564587 0.246585 0.000836675
0.0375 0.63 0.0075 -0.00553347 0.255417 0.000208951
0.0425 0.63 0.0075 -0.00505216 0.261254 -0.000321216
0.0475 0.63 0.0075 -0.00424461 0.262871 -0.000731785
0.0525 0.63 0.0075 -0.00313503 0.259956 -0.000886333
0.0575 0.63 0.0075 -0.00185746 0.252754 -0.000845619
0.0625 0.63 0.0075 -0.000581544 0.241989 -0.000620121
0.0675 0.63 0.0075 0.000508935 0.229045 -0.000252643
0.0725 0.63 0.0075 0.00117416 0.216068 0.000196142
0.0775 0.63 0.0075 0.00136229 0.204577 0.000587057
0.0825 0.63 0.0075 0.00135073 0.194926 0.000640627
0.0875 0.63 0.0075 0.00141891 0.188241 0.000562435
0.0925 0.63 0.0075 0.000315472 0.183742 0.000763066
0.0975 0.63 0.0075 -0.000126344 0.164415 -0.000270315
0.0025 0.63 0.0125 -0.000343395 0.180783 2.34925e-05
0.0075 0.63 0.0125 -0.00214724 0.201365 -0.00112102
0.0125 0.63 0.0125 -0.00369171 0.20671 -0.00118222
0.0175 0.63 0.0125 -0.00421783 0.215069 -0.000875808
0.0225 0.63 0.0125 -0.00497499 0.225885 1.93159e-05
0.0275 0.63 0.0125 -0.00534905 0.236599 0.000457252
0.0325 0.63 0.0125 -0.00551444 0.246761 0.000464531
0.0375 0.63 0.0125 -0.00537282 0.255417 0.000347821
0.0425 0.63 0.0125 -0.00491768 0.261599 0.000103967
0.0475 0.63 0.0125 -0.00418961 0.263891 -0.000119006
0.0525 0.63 0.0125 -0.00324891 0.261427 -0.000361883
0.0575 0.63 0.0125 -0.0020484 0.254245 -0.00066923
0.0625 0.63 0.0125 -0.000737583 0.242955 -0.000923166
0.0675 0.63 0.0125 0.000550086 0.229059 -0.00122208
0.0725 0.63 0.0125 0.0014773 0.214916 -0.00123417
0.0775 0.63 0.0125 0.00168537 0.202883 -0.00102808
0.0825 0.63 0.0125 0.00148867 0.19337 -0.00109122
0.0875 0.63 0.0125 0.0012938 0.18681 -0.000872114
0.0925 0.63 0.0125 0.00015852 0.182767 -0.000538214
0.0975 0.63 0.0125 -0.000194869 0.165246 0.000545345
0.0025 0.63 0.0175 -0.00012034 0.160895 0.000702818
0.0075 0.63 0.0175 -0.00233826 0.179105 -0.000886396
0.0125 0.63 0.0175 -0.00389076 0.195935 -0.0011609
0.0175 0.63 0.0175 -0.00530908 0.215555 -0.00083217
0.0225 0.63 0.0175 -0.00640136 0.234459 -7.9704e-05
0.0275 0.63 0.0175 -0.00689802 0.25113 0.000382704
0.0325 0.63 0.0175 -0.00695706 0.265573 0.000584383
0.0375 0.63 0.0175 -0.00659441 0.277263 0.000656294
0.0425 0.63 0.0175 -0.00597024 0.2853 0.000566316
0.0475 0.63 0.0175 -0.00517579 0.288779 0.000477701
0.0525 0.63 0.0175 -0.00423201 0.286889 0.000381624
0.0575 0.63 0.0175 -0.00290702 0.279114 0.000156366
0.0625 0.63 0.0175 -0.00127024 0.265741 -8.17892e-05
0.0675 0.63 0.0175 0.000395258 0.247997 -0.000384616
0.0725 0.63 0.0175 0.0019554 0.227764 -0.000516955
0.0775 0.63 0.0175 0.00259938 0.208171 -0.000580232
0.0825 0.63 0.0175 0.00237386 0.190301 -0.000766653
0.0875 0.63 0.0175 0.00146158 0.1743 -0.000565448
0.0925 0.63 0.0175 0.000425442 0.160967 -0.000393412
0.0975 0.63 0.0175 -0.000599414 0.146637 0.000946456
