# UMean.water  FACE_DATA 80
#  x  y  z  UMean.water_x  UMean.water_y  UMean.water_z  
0.0025 0.08 0.0025 0.00301395 -0.172846 -0.00271362
0.0075 0.08 0.0025 0.0052464 -0.138087 -0.00129493
0.0125 0.08 0.0025 0.00759156 -0.0958979 -0.00124031
0.0175 0.08 0.0025 0.00800095 -0.0502361 -0.000336437
0.0225 0.08 0.0025 0.00658957 -0.00362556 -0.000552332
0.0275 0.08 0.0025 0.00449692 0.0352804 -0.00136312
0.0325 0.08 0.0025 0.00274552 0.0573202 -0.00261402
0.0375 0.08 0.0025 0.00102597 0.064776 -0.00327997
0.0425 0.08 0.0025 -0.00186295 0.0703578 -0.00288069
0.0475 0.08 0.0025 -0.00441448 0.0745423 -0.00192081
0.0525 0.08 0.0025 -0.00679222 0.07638 -0.00151012
0.0575 0.08 0.0025 -0.00748207 0.0791507 -0.00181349
0.0625 0.08 0.0025 -0.00642179 0.0804276 -0.0026203
0.0675 0.08 0.0025 -0.00358877 0.0750321 -0.00301929
0.0725 0.08 0.0025 -0.00142711 0.0516835 -0.00293844
0.0775 0.08 0.0025 -0.00051218 0.0120861 -0.00228551
0.0825 0.08 0.0025 -0.000601239 -0.034358 -0.000526392
0.0875 0.08 0.0025 -0.00166705 -0.0791925 6.42418e-05
0.0925 0.08 0.0025 -0.00101249 -0.122022 0.000468027
0.0975 0.08 0.0025 -0.00144456 -0.160591 2.31366e-05
0.0025 0.08 0.0075 0.000663597 -0.155016 -0.00027736
0.0075 0.08 0.0075 0.00429011 -0.115479 0.000465741
0.0125 0.08 0.0075 0.00458179 -0.077633 -0.000185453
0.0175 0.08 0.0075 0.00492589 -0.0302394 0.000392412
0.0225 0.08 0.0075 0.00374553 0.0220791 0.000681198
0.0275 0.08 0.0075 0.00307973 0.0661888 -0.000135558
0.0325 0.08 0.0075 0.00282551 0.0937001 -0.00144345
0.0375 0.08 0.0075 0.00209114 0.103598 -0.00190156
0.0425 0.08 0.0075 -0.000555847 0.107646 -0.00110924
0.0475 0.08 0.0075 -0.00411138 0.111466 0.000126222
0.0525 0.08 0.0075 -0.00745672 0.114613 0.000758271
0.0575 0.08 0.0075 -0.00909319 0.118565 0.000469593
0.0625 0.08 0.0075 -0.00930321 0.120335 -0.000449593
0.0675 0.08 0.0075 -0.00748876 0.109917 -0.00113337
0.0725 0.08 0.0075 -0.0063327 0.077156 -0.0013888
0.0775 0.08 0.0075 -0.00634665 0.0264657 -0.00035623
0.0825 0.08 0.0075 -0.00793222 -0.0278918 0.00193453
0.0875 0.08 0.0075 -0.00786913 -0.0738613 0.0038641
0.0925 0.08 0.0075 -0.00588917 -0.111301 0.00621361
0.0975 0.08 0.0075 -0.00132735 -0.150118 0.00679462
0.0025 0.08 0.0125 8.63348e-06 -0.150476 -0.0025982
0.0075 0.08 0.0125 0.00337624 -0.109289 -0.00472897
0.0125 0.08 0.0125 0.0025498 -0.0690998 -0.0050228
0.0175 0.08 0.0125 0.00215127 -0.0198731 -0.00458313
0.0225 0.08 0.0125 0.00101309 0.0315178 -0.00280424
0.0275 0.08 0.0125 0.000173322 0.0737788 -0.00240472
0.0325 0.08 0.0125 -0.000660521 0.0992157 -0.00307179
0.0375 0.08 0.0125 -0.00145115 0.107281 -0.00400627
0.0425 0.08 0.0125 -0.0040326 0.110432 -0.00424108
0.0475 0.08 0.0125 -0.00803909 0.114368 -0.00360167
0.0525 0.08 0.0125 -0.0118704 0.117377 -0.00294394
0.0575 0.08 0.0125 -0.0138461 0.118677 -0.00226543
0.0625 0.08 0.0125 -0.014006 0.118058 -0.00157756
0.0675 0.08 0.0125 -0.0125616 0.105609 -0.00156834
0.0725 0.08 0.0125 -0.011083 0.0699402 -0.00226909
0.0775 0.08 0.0125 -0.010796 0.0156707 -0.00234225
0.0825 0.08 0.0125 -0.0131352 -0.0390747 -0.00202345
0.0875 0.08 0.0125 -0.0131422 -0.0836045 -0.000860488
0.0925 0.08 0.0125 -0.0106674 -0.118171 0.000217019
0.0975 0.08 0.0125 -0.00354135 -0.153019 0.00327863
0.0025 0.08 0.0175 0.00271371 -0.162057 0.00184132
0.0075 0.08 0.0175 0.003347 -0.123728 -0.000450698
0.0125 0.08 0.0175 0.00326957 -0.0798313 -0.000665947
0.0175 0.08 0.0175 0.00164515 -0.0328133 -0.00144478
0.0225 0.08 0.0175 0.000218531 0.0135598 -0.000281846
0.0275 0.08 0.0175 -0.000710527 0.0487564 0.00071329
0.0325 0.08 0.0175 -0.00154014 0.0668458 0.000892229
0.0375 0.08 0.0175 -0.00273182 0.0706887 0.000350981
0.0425 0.08 0.0175 -0.0057785 0.0764107 -0.000119613
0.0475 0.08 0.0175 -0.00955836 0.0835024 5.50011e-05
0.0525 0.08 0.0175 -0.0129875 0.0864751 0.000747988
0.0575 0.08 0.0175 -0.0146147 0.0854401 0.00161216
0.0625 0.08 0.0175 -0.015261 0.0819791 0.00225519
0.0675 0.08 0.0175 -0.0139006 0.0714298 0.00188829
0.0725 0.08 0.0175 -0.0122126 0.0417899 0.000773755
0.0775 0.08 0.0175 -0.0119778 -0.00506504 0.000147362
0.0825 0.08 0.0175 -0.014478 -0.0553709 -0.000141308
0.0875 0.08 0.0175 -0.0155763 -0.101455 0.00176929
0.0925 0.08 0.0175 -0.0124597 -0.140241 0.00343469
0.0975 0.08 0.0175 -0.00673745 -0.170853 0.004937
