# alphaMean.water  FACE_DATA 80
#  x  y  z  alphaMean.water
0.0025 0.08 0.0025 0.996932
0.0075 0.08 0.0025 0.997664
0.0125 0.08 0.0025 0.997522
0.0175 0.08 0.0025 0.996148
0.0225 0.08 0.0025 0.988599
0.0275 0.08 0.0025 0.978371
0.0325 0.08 0.0025 0.969817
0.0375 0.08 0.0025 0.968494
0.0425 0.08 0.0025 0.972369
0.0475 0.08 0.0025 0.974813
0.0525 0.08 0.0025 0.974921
0.0575 0.08 0.0025 0.97287
0.0625 0.08 0.0025 0.969701
0.0675 0.08 0.0025 0.971375
0.0725 0.08 0.0025 0.979663
0.0775 0.08 0.0025 0.989335
0.0825 0.08 0.0025 0.996295
0.0875 0.08 0.0025 0.997392
0.0925 0.08 0.0025 0.997483
0.0975 0.08 0.0025 0.996699
0.0025 0.08 0.0075 0.98003
0.0075 0.08 0.0075 0.959054
0.0125 0.08 0.0075 0.967639
0.0175 0.08 0.0075 0.980595
0.0225 0.08 0.0075 0.969883
0.0275 0.08 0.0075 0.950614
0.0325 0.08 0.0075 0.937803
0.0375 0.08 0.0075 0.940462
0.0425 0.08 0.0075 0.947534
0.0475 0.08 0.0075 0.951295
0.0525 0.08 0.0075 0.951565
0.0575 0.08 0.0075 0.948652
0.0625 0.08 0.0075 0.942987
0.0675 0.08 0.0075 0.941411
0.0725 0.08 0.0075 0.95391
0.0775 0.08 0.0075 0.971813
0.0825 0.08 0.0075 0.980269
0.0875 0.08 0.0075 0.964829
0.0925 0.08 0.0075 0.955307
0.0975 0.08 0.0075 0.978421
0.0025 0.08 0.0125 0.98003
0.0075 0.08 0.0125 0.959054
0.0125 0.08 0.0125 0.967638
0.0175 0.08 0.0125 0.980595
0.0225 0.08 0.0125 0.969883
0.0275 0.08 0.0125 0.950614
0.0325 0.08 0.0125 0.937803
0.0375 0.08 0.0125 0.940462
0.0425 0.08 0.0125 0.947534
0.0475 0.08 0.0125 0.951295
0.0525 0.08 0.0125 0.951566
0.0575 0.08 0.0125 0.948653
0.0625 0.08 0.0125 0.942988
0.0675 0.08 0.0125 0.941413
0.0725 0.08 0.0125 0.953911
0.0775 0.08 0.0125 0.971814
0.0825 0.08 0.0125 0.980269
0.0875 0.08 0.0125 0.964829
0.0925 0.08 0.0125 0.955307
0.0975 0.08 0.0125 0.978421
0.0025 0.08 0.0175 0.996932
0.0075 0.08 0.0175 0.997664
0.0125 0.08 0.0175 0.997522
0.0175 0.08 0.0175 0.996148
0.0225 0.08 0.0175 0.988599
0.0275 0.08 0.0175 0.978371
0.0325 0.08 0.0175 0.969817
0.0375 0.08 0.0175 0.968494
0.0425 0.08 0.0175 0.972369
0.0475 0.08 0.0175 0.974813
0.0525 0.08 0.0175 0.97492
0.0575 0.08 0.0175 0.972869
0.0625 0.08 0.0175 0.9697
0.0675 0.08 0.0175 0.971374
0.0725 0.08 0.0175 0.979663
0.0775 0.08 0.0175 0.989335
0.0825 0.08 0.0175 0.996296
0.0875 0.08 0.0175 0.997392
0.0925 0.08 0.0175 0.997483
0.0975 0.08 0.0175 0.996699
