# alphaMean.air  FACE_DATA 80
#  x  y  z  alphaMean.air
0.0025 0.63 0.0025 0.0310345
0.0075 0.63 0.0025 0.0323457
0.0125 0.63 0.0025 0.0394737
0.0175 0.63 0.0025 0.0461465
0.0225 0.63 0.0025 0.0518634
0.0275 0.63 0.0025 0.055789
0.0325 0.63 0.0025 0.058525
0.0375 0.63 0.0025 0.0605995
0.0425 0.63 0.0025 0.0625614
0.0475 0.63 0.0025 0.0641451
0.0525 0.63 0.0025 0.06416
0.0575 0.63 0.0025 0.0626034
0.0625 0.63 0.0025 0.0606513
0.0675 0.63 0.0025 0.0585838
0.0725 0.63 0.0025 0.0558849
0.0775 0.63 0.0025 0.0520093
0.0825 0.63 0.0025 0.0464069
0.0875 0.63 0.0025 0.0398366
0.0925 0.63 0.0025 0.0326727
0.0975 0.63 0.0025 0.0314748
0.0025 0.63 0.0075 0.0393069
0.0075 0.63 0.0075 0.0544707
0.0125 0.63 0.0075 0.0448193
0.0175 0.63 0.0075 0.0377032
0.0225 0.63 0.0075 0.0342083
0.0275 0.63 0.0075 0.0319033
0.0325 0.63 0.0075 0.0306587
0.0375 0.63 0.0075 0.0310621
0.0425 0.63 0.0075 0.0323436
0.0475 0.63 0.0075 0.0331987
0.0525 0.63 0.0075 0.0332111
0.0575 0.63 0.0075 0.0323825
0.0625 0.63 0.0075 0.0311295
0.0675 0.63 0.0075 0.0307205
0.0725 0.63 0.0075 0.0319078
0.0775 0.63 0.0075 0.0341446
0.0825 0.63 0.0075 0.037591
0.0875 0.63 0.0075 0.0448692
0.0925 0.63 0.0075 0.054802
0.0975 0.63 0.0075 0.0398785
0.0025 0.63 0.0125 0.0393068
0.0075 0.63 0.0125 0.0544705
0.0125 0.63 0.0125 0.0448189
0.0175 0.63 0.0125 0.0377029
0.0225 0.63 0.0125 0.0342081
0.0275 0.63 0.0125 0.031903
0.0325 0.63 0.0125 0.0306584
0.0375 0.63 0.0125 0.0310618
0.0425 0.63 0.0125 0.0323433
0.0475 0.63 0.0125 0.0331984
0.0525 0.63 0.0125 0.0332108
0.0575 0.63 0.0125 0.0323823
0.0625 0.63 0.0125 0.0311292
0.0675 0.63 0.0125 0.0307202
0.0725 0.63 0.0125 0.0319076
0.0775 0.63 0.0125 0.0341444
0.0825 0.63 0.0125 0.0375909
0.0875 0.63 0.0125 0.0448691
0.0925 0.63 0.0125 0.054802
0.0975 0.63 0.0125 0.0398784
0.0025 0.63 0.0175 0.0310345
0.0075 0.63 0.0175 0.0323458
0.0125 0.63 0.0175 0.0394737
0.0175 0.63 0.0175 0.0461465
0.0225 0.63 0.0175 0.0518634
0.0275 0.63 0.0175 0.0557891
0.0325 0.63 0.0175 0.058525
0.0375 0.63 0.0175 0.0605995
0.0425 0.63 0.0175 0.0625615
0.0475 0.63 0.0175 0.0641451
0.0525 0.63 0.0175 0.0641601
0.0575 0.63 0.0175 0.0626034
0.0625 0.63 0.0175 0.0606513
0.0675 0.63 0.0175 0.0585839
0.0725 0.63 0.0175 0.0558849
0.0775 0.63 0.0175 0.0520093
0.0825 0.63 0.0175 0.0464069
0.0875 0.63 0.0175 0.0398366
0.0925 0.63 0.0175 0.0326727
0.0975 0.63 0.0175 0.0314748
