# alphaMean.air  FACE_DATA 80
#  x  y  z  alphaMean.air
0.0025 0.08 0.0025 0.0030683
0.0075 0.08 0.0025 0.00233628
0.0125 0.08 0.0025 0.00247814
0.0175 0.08 0.0025 0.00385169
0.0225 0.08 0.0025 0.0114009
0.0275 0.08 0.0025 0.0216291
0.0325 0.08 0.0025 0.0301826
0.0375 0.08 0.0025 0.0315059
0.0425 0.08 0.0025 0.027631
0.0475 0.08 0.0025 0.0251871
0.0525 0.08 0.0025 0.0250795
0.0575 0.08 0.0025 0.0271303
0.0625 0.08 0.0025 0.0302995
0.0675 0.08 0.0025 0.0286253
0.0725 0.08 0.0025 0.0203367
0.0775 0.08 0.0025 0.0106655
0.0825 0.08 0.0025 0.00370452
0.0875 0.08 0.0025 0.00260799
0.0925 0.08 0.0025 0.00251749
0.0975 0.08 0.0025 0.00330061
0.0025 0.08 0.0075 0.0199702
0.0075 0.08 0.0075 0.0409458
0.0125 0.08 0.0075 0.0323615
0.0175 0.08 0.0075 0.0194048
0.0225 0.08 0.0075 0.0301167
0.0275 0.08 0.0075 0.0493862
0.0325 0.08 0.0075 0.0621967
0.0375 0.08 0.0075 0.0595377
0.0425 0.08 0.0075 0.0524664
0.0475 0.08 0.0075 0.0487053
0.0525 0.08 0.0075 0.0484346
0.0575 0.08 0.0075 0.0513477
0.0625 0.08 0.0075 0.0570128
0.0675 0.08 0.0075 0.0585886
0.0725 0.08 0.0075 0.0460897
0.0775 0.08 0.0075 0.0281868
0.0825 0.08 0.0075 0.0197312
0.0875 0.08 0.0075 0.0351709
0.0925 0.08 0.0075 0.0446927
0.0975 0.08 0.0075 0.0215788
0.0025 0.08 0.0125 0.0199703
0.0075 0.08 0.0125 0.0409459
0.0125 0.08 0.0125 0.0323617
0.0175 0.08 0.0125 0.0194049
0.0225 0.08 0.0125 0.0301166
0.0275 0.08 0.0125 0.049386
0.0325 0.08 0.0125 0.0621965
0.0375 0.08 0.0125 0.0595377
0.0425 0.08 0.0125 0.0524665
0.0475 0.08 0.0125 0.0487053
0.0525 0.08 0.0125 0.0484344
0.0575 0.08 0.0125 0.051347
0.0625 0.08 0.0125 0.0570116
0.0675 0.08 0.0125 0.0585874
0.0725 0.08 0.0125 0.0460885
0.0775 0.08 0.0125 0.0281862
0.0825 0.08 0.0125 0.0197312
0.0875 0.08 0.0125 0.0351709
0.0925 0.08 0.0125 0.0446927
0.0975 0.08 0.0125 0.0215788
0.0025 0.08 0.0175 0.00306832
0.0075 0.08 0.0175 0.00233632
0.0125 0.08 0.0175 0.00247817
0.0175 0.08 0.0175 0.00385168
0.0225 0.08 0.0175 0.0114009
0.0275 0.08 0.0175 0.021629
0.0325 0.08 0.0175 0.0301825
0.0375 0.08 0.0175 0.0315059
0.0425 0.08 0.0175 0.0276311
0.0475 0.08 0.0175 0.0251872
0.0525 0.08 0.0175 0.0250798
0.0575 0.08 0.0175 0.027131
0.0625 0.08 0.0175 0.0303
0.0675 0.08 0.0175 0.0286256
0.0725 0.08 0.0175 0.0203369
0.0775 0.08 0.0175 0.0106653
0.0825 0.08 0.0175 0.00370434
0.0875 0.08 0.0175 0.00260795
0.0925 0.08 0.0175 0.00251749
0.0975 0.08 0.0175 0.00330055
