# alphaMean.water  FACE_DATA 80
#  x  y  z  alphaMean.water
0.0025 0.63 0.0025 0.968966
0.0075 0.63 0.0025 0.967654
0.0125 0.63 0.0025 0.960526
0.0175 0.63 0.0025 0.953854
0.0225 0.63 0.0025 0.948137
0.0275 0.63 0.0025 0.944211
0.0325 0.63 0.0025 0.941475
0.0375 0.63 0.0025 0.939401
0.0425 0.63 0.0025 0.937439
0.0475 0.63 0.0025 0.935855
0.0525 0.63 0.0025 0.93584
0.0575 0.63 0.0025 0.937397
0.0625 0.63 0.0025 0.939349
0.0675 0.63 0.0025 0.941416
0.0725 0.63 0.0025 0.944115
0.0775 0.63 0.0025 0.947991
0.0825 0.63 0.0025 0.953593
0.0875 0.63 0.0025 0.960163
0.0925 0.63 0.0025 0.967327
0.0975 0.63 0.0025 0.968525
0.0025 0.63 0.0075 0.960693
0.0075 0.63 0.0075 0.945529
0.0125 0.63 0.0075 0.955181
0.0175 0.63 0.0075 0.962297
0.0225 0.63 0.0075 0.965792
0.0275 0.63 0.0075 0.968097
0.0325 0.63 0.0075 0.969341
0.0375 0.63 0.0075 0.968938
0.0425 0.63 0.0075 0.967656
0.0475 0.63 0.0075 0.966801
0.0525 0.63 0.0075 0.966789
0.0575 0.63 0.0075 0.967617
0.0625 0.63 0.0075 0.968871
0.0675 0.63 0.0075 0.96928
0.0725 0.63 0.0075 0.968092
0.0775 0.63 0.0075 0.965855
0.0825 0.63 0.0075 0.962409
0.0875 0.63 0.0075 0.955131
0.0925 0.63 0.0075 0.945198
0.0975 0.63 0.0075 0.960122
0.0025 0.63 0.0125 0.960693
0.0075 0.63 0.0125 0.945529
0.0125 0.63 0.0125 0.955181
0.0175 0.63 0.0125 0.962297
0.0225 0.63 0.0125 0.965792
0.0275 0.63 0.0125 0.968097
0.0325 0.63 0.0125 0.969342
0.0375 0.63 0.0125 0.968938
0.0425 0.63 0.0125 0.967657
0.0475 0.63 0.0125 0.966802
0.0525 0.63 0.0125 0.966789
0.0575 0.63 0.0125 0.967618
0.0625 0.63 0.0125 0.968871
0.0675 0.63 0.0125 0.96928
0.0725 0.63 0.0125 0.968092
0.0775 0.63 0.0125 0.965856
0.0825 0.63 0.0125 0.962409
0.0875 0.63 0.0125 0.955131
0.0925 0.63 0.0125 0.945198
0.0975 0.63 0.0125 0.960122
0.0025 0.63 0.0175 0.968965
0.0075 0.63 0.0175 0.967654
0.0125 0.63 0.0175 0.960526
0.0175 0.63 0.0175 0.953853
0.0225 0.63 0.0175 0.948137
0.0275 0.63 0.0175 0.944211
0.0325 0.63 0.0175 0.941475
0.0375 0.63 0.0175 0.939401
0.0425 0.63 0.0175 0.937439
0.0475 0.63 0.0175 0.935855
0.0525 0.63 0.0175 0.93584
0.0575 0.63 0.0175 0.937397
0.0625 0.63 0.0175 0.939349
0.0675 0.63 0.0175 0.941416
0.0725 0.63 0.0175 0.944115
0.0775 0.63 0.0175 0.947991
0.0825 0.63 0.0175 0.953593
0.0875 0.63 0.0175 0.960163
0.0925 0.63 0.0175 0.967327
0.0975 0.63 0.0175 0.968525
