# pMean  FACE_DATA 80
#  x  y  z  pMean
0.0025 0.08 0.0025 108605
0.0075 0.08 0.0025 108604
0.0125 0.08 0.0025 108603
0.0175 0.08 0.0025 108601
0.0225 0.08 0.0025 108598
0.0275 0.08 0.0025 108596
0.0325 0.08 0.0025 108594
0.0375 0.08 0.0025 108592
0.0425 0.08 0.0025 108591
0.0475 0.08 0.0025 108590
0.0525 0.08 0.0025 108590
0.0575 0.08 0.0025 108590
0.0625 0.08 0.0025 108591
0.0675 0.08 0.0025 108593
0.0725 0.08 0.0025 108595
0.0775 0.08 0.0025 108597
0.0825 0.08 0.0025 108600
0.0875 0.08 0.0025 108602
0.0925 0.08 0.0025 108603
0.0975 0.08 0.0025 108604
0.0025 0.08 0.0075 108605
0.0075 0.08 0.0075 108604
0.0125 0.08 0.0075 108603
0.0175 0.08 0.0075 108601
0.0225 0.08 0.0075 108598
0.0275 0.08 0.0075 108596
0.0325 0.08 0.0075 108594
0.0375 0.08 0.0075 108592
0.0425 0.08 0.0075 108591
0.0475 0.08 0.0075 108590
0.0525 0.08 0.0075 108590
0.0575 0.08 0.0075 108590
0.0625 0.08 0.0075 108591
0.0675 0.08 0.0075 108593
0.0725 0.08 0.0075 108595
0.0775 0.08 0.0075 108597
0.0825 0.08 0.0075 108600
0.0875 0.08 0.0075 108602
0.0925 0.08 0.0075 108603
0.0975 0.08 0.0075 108604
0.0025 0.08 0.0125 108605
0.0075 0.08 0.0125 108604
0.0125 0.08 0.0125 108603
0.0175 0.08 0.0125 108601
0.0225 0.08 0.0125 108598
0.0275 0.08 0.0125 108596
0.0325 0.08 0.0125 108594
0.0375 0.08 0.0125 108592
0.0425 0.08 0.0125 108591
0.0475 0.08 0.0125 108590
0.0525 0.08 0.0125 108590
0.0575 0.08 0.0125 108590
0.0625 0.08 0.0125 108591
0.0675 0.08 0.0125 108593
0.0725 0.08 0.0125 108595
0.0775 0.08 0.0125 108597
0.0825 0.08 0.0125 108600
0.0875 0.08 0.0125 108602
0.0925 0.08 0.0125 108603
0.0975 0.08 0.0125 108604
0.0025 0.08 0.0175 108605
0.0075 0.08 0.0175 108604
0.0125 0.08 0.0175 108603
0.0175 0.08 0.0175 108601
0.0225 0.08 0.0175 108598
0.0275 0.08 0.0175 108596
0.0325 0.08 0.0175 108594
0.0375 0.08 0.0175 108592
0.0425 0.08 0.0175 108591
0.0475 0.08 0.0175 108590
0.0525 0.08 0.0175 108590
0.0575 0.08 0.0175 108590
0.0625 0.08 0.0175 108591
0.0675 0.08 0.0175 108593
0.0725 0.08 0.0175 108595
0.0775 0.08 0.0175 108597
0.0825 0.08 0.0175 108600
0.0875 0.08 0.0175 108602
0.0925 0.08 0.0175 108603
0.0975 0.08 0.0175 108604
