# UMean.air  FACE_DATA 80
#  x  y  z  UMean.air_x  UMean.air_y  UMean.air_z  
0.0025 0.08 0.0025 -0.000187546 0.0358714 -0.000413814
0.0075 0.08 0.0025 -0.00841631 0.0843121 0.00300732
0.0125 0.08 0.0025 -0.0130027 0.142863 0.00113432
0.0175 0.08 0.0025 -0.0133134 0.197649 0.000754089
0.0225 0.08 0.0025 -0.0125527 0.246431 -0.000127177
0.0275 0.08 0.0025 -0.0115497 0.285555 -0.000982863
0.0325 0.08 0.0025 -0.00876808 0.310983 -0.00243568
0.0375 0.08 0.0025 -0.0048735 0.319101 -0.00483995
0.0425 0.08 0.0025 -0.00103484 0.316661 -0.00544617
0.0475 0.08 0.0025 0.00245314 0.313414 -0.00535497
0.0525 0.08 0.0025 0.00470228 0.312329 -0.00519278
0.0575 0.08 0.0025 0.00755081 0.313141 -0.00503397
0.0625 0.08 0.0025 0.0102851 0.312922 -0.00435678
0.0675 0.08 0.0025 0.0129082 0.302678 -0.00206844
0.0725 0.08 0.0025 0.014439 0.27615 -0.000670076
0.0775 0.08 0.0025 0.0144154 0.236542 0.000189478
0.0825 0.08 0.0025 0.0142377 0.187498 0.00122749
0.0875 0.08 0.0025 0.0130928 0.132386 0.0016376
0.0925 0.08 0.0025 0.00796573 0.0735481 0.0033785
0.0975 0.08 0.0025 -0.000119596 0.0248901 -0.000360598
0.0025 0.08 0.0075 -0.00159754 0.0723305 0.00138389
0.0075 0.08 0.0075 -0.00535502 0.116593 0.00292385
0.0125 0.08 0.0075 -0.0113739 0.162692 0.00133932
0.0175 0.08 0.0075 -0.0132824 0.212015 0.000379911
0.0225 0.08 0.0075 -0.014194 0.259378 -0.000606895
0.0275 0.08 0.0075 -0.0122409 0.298775 -0.00132668
0.0325 0.08 0.0075 -0.00821333 0.325125 -0.00225791
0.0375 0.08 0.0075 -0.00379267 0.335728 -0.0044031
0.0425 0.08 0.0075 -0.000407519 0.336331 -0.00496077
0.0475 0.08 0.0075 0.00248044 0.334387 -0.00502716
0.0525 0.08 0.0075 0.0048078 0.332976 -0.00487279
0.0575 0.08 0.0075 0.00713402 0.332025 -0.00456542
0.0625 0.08 0.0075 0.00946283 0.328612 -0.00395795
0.0675 0.08 0.0075 0.0125794 0.31579 -0.00192846
0.0725 0.08 0.0075 0.0151793 0.288249 -0.00100134
0.0775 0.08 0.0075 0.0158535 0.248466 -0.000239359
0.0825 0.08 0.0075 0.013867 0.201375 0.000897955
0.0875 0.08 0.0075 0.0112726 0.152528 0.00193673
0.0925 0.08 0.0075 0.00473084 0.106734 0.00342358
0.0975 0.08 0.0075 0.00116522 0.0619405 0.00162494
0.0025 0.08 0.0125 -0.00159752 0.0723306 -0.00138384
0.0075 0.08 0.0125 -0.005355 0.116593 -0.00292383
0.0125 0.08 0.0125 -0.0113739 0.162693 -0.0013393
0.0175 0.08 0.0125 -0.0132824 0.212015 -0.000379875
0.0225 0.08 0.0125 -0.0141939 0.259378 0.000606914
0.0275 0.08 0.0125 -0.0122408 0.298775 0.00132669
0.0325 0.08 0.0125 -0.00821333 0.325125 0.00225791
0.0375 0.08 0.0125 -0.00379268 0.335728 0.00440306
0.0425 0.08 0.0125 -0.000407506 0.336331 0.00496073
0.0475 0.08 0.0125 0.00248049 0.334387 0.00502715
0.0525 0.08 0.0125 0.00480785 0.332976 0.00487277
0.0575 0.08 0.0125 0.00713401 0.332025 0.00456535
0.0625 0.08 0.0125 0.00946279 0.328612 0.00395782
0.0675 0.08 0.0125 0.0125794 0.31579 0.00192828
0.0725 0.08 0.0125 0.0151793 0.288249 0.00100128
0.0775 0.08 0.0125 0.0158535 0.248466 0.000239384
0.0825 0.08 0.0125 0.0138671 0.201375 -0.000897846
0.0875 0.08 0.0125 0.0112726 0.152528 -0.0019366
0.0925 0.08 0.0125 0.00473083 0.106734 -0.00342351
0.0975 0.08 0.0125 0.00116521 0.0619409 -0.00162492
0.0025 0.08 0.0175 -0.000187521 0.0358714 0.00041382
0.0075 0.08 0.0175 -0.00841625 0.0843122 -0.00300733
0.0125 0.08 0.0175 -0.0130026 0.142863 -0.00113432
0.0175 0.08 0.0175 -0.0133133 0.197649 -0.000754101
0.0225 0.08 0.0175 -0.0125527 0.246431 0.000127187
0.0275 0.08 0.0175 -0.0115496 0.285554 0.000982863
0.0325 0.08 0.0175 -0.00876805 0.310983 0.00243565
0.0375 0.08 0.0175 -0.00487351 0.319101 0.0048399
0.0425 0.08 0.0175 -0.00103487 0.316661 0.00544613
0.0475 0.08 0.0175 0.00245316 0.313414 0.00535494
0.0525 0.08 0.0175 0.00470232 0.312329 0.00519272
0.0575 0.08 0.0175 0.00755089 0.313142 0.00503387
0.0625 0.08 0.0175 0.0102852 0.312922 0.00435666
0.0675 0.08 0.0175 0.0129083 0.302678 0.0020683
0.0725 0.08 0.0175 0.014439 0.27615 0.000670057
0.0775 0.08 0.0175 0.0144153 0.236542 -0.000189377
0.0825 0.08 0.0175 0.0142376 0.187498 -0.00122739
0.0875 0.08 0.0175 0.0130927 0.132385 -0.00163753
0.0925 0.08 0.0175 0.00796576 0.0735479 -0.00337849
0.0975 0.08 0.0175 -0.000119572 0.0248896 0.000360617
