# UMean.air  FACE_DATA 80
#  x  y  z  UMean.air_x  UMean.air_y  UMean.air_z  
0.0025 0.63 0.0025 -0.000928318 0.168719 -0.00114146
0.0075 0.63 0.0025 -0.00441638 0.183177 0.00148116
0.0125 0.63 0.0025 -0.00762233 0.197543 0.00153077
0.0175 0.63 0.0025 -0.00880122 0.21157 0.00148372
0.0225 0.63 0.0025 -0.0094455 0.225825 0.000895153
0.0275 0.63 0.0025 -0.00904968 0.239397 0.000273398
0.0325 0.63 0.0025 -0.00764081 0.251928 -0.000307066
0.0375 0.63 0.0025 -0.00537731 0.262752 -0.000251921
0.0425 0.63 0.0025 -0.00304384 0.271163 0.000317792
0.0475 0.63 0.0025 -0.0012712 0.275939 0.000447979
0.0525 0.63 0.0025 0.000183809 0.275931 0.00045239
0.0575 0.63 0.0025 0.00199071 0.271139 0.000321555
0.0625 0.63 0.0025 0.00436135 0.262718 -0.000247757
0.0675 0.63 0.0025 0.0066636 0.251941 -0.000303359
0.0725 0.63 0.0025 0.0081434 0.239582 0.000256062
0.0775 0.63 0.0025 0.00862812 0.226282 0.000852749
0.0825 0.63 0.0025 0.00814796 0.212409 0.00141632
0.0875 0.63 0.0025 0.00718131 0.198776 0.00145404
0.0925 0.63 0.0025 0.00424792 0.184635 0.00142123
0.0975 0.63 0.0025 0.000936345 0.170277 -0.00112636
0.0025 0.63 0.0075 0.000289838 0.186555 -0.000821934
0.0075 0.63 0.0075 -0.0018309 0.196196 0.00147462
0.0125 0.63 0.0075 -0.00537875 0.200495 0.00139764
0.0175 0.63 0.0075 -0.00642205 0.205472 0.00135416
0.0225 0.63 0.0075 -0.00726103 0.212376 0.000842272
0.0275 0.63 0.0075 -0.00748674 0.220627 0.000278389
0.0325 0.63 0.0075 -0.00702284 0.229677 -0.00030205
0.0375 0.63 0.0075 -0.00573634 0.238728 -0.000245903
0.0425 0.63 0.0075 -0.00382332 0.246292 0.00027954
0.0475 0.63 0.0075 -0.00163851 0.25053 0.000480684
0.0525 0.63 0.0075 0.000608406 0.250521 0.000472856
0.0575 0.63 0.0075 0.00280668 0.246272 0.000268483
0.0625 0.63 0.0075 0.00476713 0.238731 -0.000252299
0.0675 0.63 0.0075 0.00610877 0.22975 -0.000299067
0.0725 0.63 0.0075 0.00663365 0.220838 0.000270959
0.0775 0.63 0.0075 0.00647288 0.21281 0.000815682
0.0825 0.63 0.0075 0.00573798 0.20623 0.00129869
0.0875 0.63 0.0075 0.00481315 0.201662 0.00132233
0.0925 0.63 0.0075 0.00152152 0.19774 0.0014145
0.0975 0.63 0.0075 -0.000387403 0.188399 -0.000832354
0.0025 0.63 0.0125 0.000289832 0.186555 0.000821941
0.0075 0.63 0.0125 -0.0018309 0.196196 -0.00147461
0.0125 0.63 0.0125 -0.00537875 0.200495 -0.00139762
0.0175 0.63 0.0125 -0.00642206 0.205472 -0.00135416
0.0225 0.63 0.0125 -0.00726103 0.212376 -0.000842264
0.0275 0.63 0.0125 -0.00748674 0.220627 -0.000278376
0.0325 0.63 0.0125 -0.00702284 0.229677 0.000302069
0.0375 0.63 0.0125 -0.00573634 0.238728 0.000245926
0.0425 0.63 0.0125 -0.00382332 0.246292 -0.000279517
0.0475 0.63 0.0125 -0.00163852 0.25053 -0.000480668
0.0525 0.63 0.0125 0.0006084 0.250521 -0.000472849
0.0575 0.63 0.0125 0.00280667 0.246271 -0.000268463
0.0625 0.63 0.0125 0.00476712 0.238731 0.000252323
0.0675 0.63 0.0125 0.00610877 0.22975 0.000299089
0.0725 0.63 0.0125 0.00663364 0.220838 -0.000270939
0.0775 0.63 0.0125 0.00647288 0.212809 -0.000815663
0.0825 0.63 0.0125 0.00573797 0.20623 -0.00129868
0.0875 0.63 0.0125 0.00481314 0.201662 -0.00132232
0.0925 0.63 0.0125 0.00152152 0.19774 -0.0014145
0.0975 0.63 0.0125 -0.000387405 0.188399 0.000832355
0.0025 0.63 0.0175 -0.000928321 0.168719 0.00114146
0.0075 0.63 0.0175 -0.00441637 0.183177 -0.00148116
0.0125 0.63 0.0175 -0.00762233 0.197543 -0.00153078
0.0175 0.63 0.0175 -0.00880123 0.21157 -0.00148372
0.0225 0.63 0.0175 -0.00944551 0.225825 -0.000895152
0.0275 0.63 0.0175 -0.00904968 0.239397 -0.000273397
0.0325 0.63 0.0175 -0.00764081 0.251928 0.000307068
0.0375 0.63 0.0175 -0.00537731 0.262752 0.000251926
0.0425 0.63 0.0175 -0.00304385 0.271163 -0.000317786
0.0475 0.63 0.0175 -0.00127121 0.275939 -0.000447976
0.0525 0.63 0.0175 0.0001838 0.275931 -0.000452389
0.0575 0.63 0.0175 0.0019907 0.271139 -0.00032155
0.0625 0.63 0.0175 0.00436134 0.262718 0.000247767
0.0675 0.63 0.0175 0.0066636 0.25194 0.000303364
0.0725 0.63 0.0175 0.0081434 0.239582 -0.00025606
0.0775 0.63 0.0175 0.00862811 0.226282 -0.000852747
0.0825 0.63 0.0175 0.00814795 0.212409 -0.00141632
0.0875 0.63 0.0175 0.00718131 0.198776 -0.00145404
0.0925 0.63 0.0175 0.00424793 0.184635 -0.00142123
0.0975 0.63 0.0175 0.000936348 0.170277 0.00112637
