# UMean.water  FACE_DATA 80
#  x  y  z  UMean.water_x  UMean.water_y  UMean.water_z  
0.0025 0.63 0.0025 -0.00041955 -0.0551607 -0.000761539
0.0075 0.63 0.0025 -0.00184206 -0.0406488 3.16863e-05
0.0125 0.63 0.0025 -0.00349126 -0.0261303 0.00019824
0.0175 0.63 0.0025 -0.0044531 -0.0120085 0.000185327
0.0225 0.63 0.0025 -0.00502581 0.00232794 9.57481e-05
0.0275 0.63 0.0025 -0.00494389 0.0159072 4.44447e-05
0.0325 0.63 0.0025 -0.00433412 0.0284624 5.17592e-05
0.0375 0.63 0.0025 -0.00335723 0.0392964 6.78508e-05
0.0425 0.63 0.0025 -0.00223118 0.0477492 7.47977e-05
0.0475 0.63 0.0025 -0.00109637 0.0525859 1.32677e-05
0.0525 0.63 0.0025 4.67053e-05 0.0525736 1.84271e-05
0.0575 0.63 0.0025 0.00121368 0.0477135 8.38837e-05
0.0625 0.63 0.0025 0.00239094 0.0392421 7.60546e-05
0.0675 0.63 0.0025 0.00343885 0.0284449 5.31262e-05
0.0725 0.63 0.0025 0.00414717 0.0160596 3.98001e-05
0.0775 0.63 0.0025 0.00433915 0.00274814 8.78646e-05
0.0825 0.63 0.0025 0.0039181 -0.0112071 0.000175992
0.0875 0.63 0.0025 0.00311559 -0.0249314 0.000191117
0.0925 0.63 0.0025 0.00165694 -0.039224 2.38041e-05
0.0975 0.63 0.0025 0.000390541 -0.0536187 -0.00071645
0.0025 0.63 0.0075 -0.00106705 -0.0371002 -0.000427385
0.0075 0.63 0.0075 -0.00234277 -0.0268497 1.89946e-05
0.0125 0.63 0.0075 -0.0037448 -0.0229596 5.19369e-05
0.0175 0.63 0.0075 -0.00455388 -0.0183707 4.8013e-05
0.0225 0.63 0.0075 -0.00495986 -0.0117247 3.78058e-05
0.0275 0.63 0.0075 -0.00484383 -0.00368388 5.42621e-05
0.0325 0.63 0.0075 -0.00428228 0.00521688 6.54876e-05
0.0375 0.63 0.0075 -0.00333262 0.0142264 7.35915e-05
0.0425 0.63 0.0075 -0.00221745 0.0218083 3.34161e-05
0.0475 0.63 0.0075 -0.00109139 0.0260643 3.40775e-05
0.0525 0.63 0.0075 6.82773e-05 0.0260506 2.66886e-05
0.0575 0.63 0.0075 0.0012202 0.0217764 2.82956e-05
0.0625 0.63 0.0075 0.00239389 0.0142123 7.23596e-05
0.0675 0.63 0.0075 0.00341729 0.00526728 6.64698e-05
0.0725 0.63 0.0075 0.00406757 -0.00350295 5.94824e-05
0.0775 0.63 0.0075 0.00428481 -0.011328 4.43265e-05
0.0825 0.63 0.0075 0.00400173 -0.0176572 4.99983e-05
0.0875 0.63 0.0075 0.0033195 -0.0218371 4.64896e-05
0.0925 0.63 0.0075 0.00206723 -0.025344 1.13601e-05
0.0975 0.63 0.0075 0.000927751 -0.0352844 -0.000407479
0.0025 0.63 0.0125 -0.00106705 -0.0371003 0.000427387
0.0075 0.63 0.0125 -0.00234277 -0.0268498 -1.89909e-05
0.0125 0.63 0.0125 -0.0037448 -0.0229598 -5.19288e-05
0.0175 0.63 0.0125 -0.00455389 -0.0183708 -4.80068e-05
0.0225 0.63 0.0125 -0.00495986 -0.0117248 -3.78024e-05
0.0275 0.63 0.0125 -0.00484383 -0.00368399 -5.42602e-05
0.0325 0.63 0.0125 -0.00428228 0.00521675 -6.54833e-05
0.0375 0.63 0.0125 -0.00333263 0.0142262 -7.35869e-05
0.0425 0.63 0.0125 -0.00221745 0.0218081 -3.34141e-05
0.0475 0.63 0.0125 -0.00109139 0.0260642 -3.40737e-05
0.0525 0.63 0.0125 6.82732e-05 0.0260505 -2.6688e-05
0.0575 0.63 0.0125 0.00122019 0.0217763 -2.82973e-05
0.0625 0.63 0.0125 0.00239388 0.0142122 -7.23563e-05
0.0675 0.63 0.0125 0.00341728 0.00526716 -6.64646e-05
0.0725 0.63 0.0125 0.00406756 -0.00350306 -5.94784e-05
0.0775 0.63 0.0125 0.00428481 -0.0113281 -4.43221e-05
0.0825 0.63 0.0125 0.00400173 -0.0176572 -4.99919e-05
0.0875 0.63 0.0125 0.0033195 -0.0218371 -4.64808e-05
0.0925 0.63 0.0125 0.00206723 -0.025344 -1.13592e-05
0.0975 0.63 0.0125 0.000927751 -0.0352845 0.000407475
0.0025 0.63 0.0175 -0.000419552 -0.0551607 0.000761539
0.0075 0.63 0.0175 -0.00184207 -0.0406488 -3.16837e-05
0.0125 0.63 0.0175 -0.00349127 -0.0261303 -0.000198238
0.0175 0.63 0.0175 -0.0044531 -0.0120086 -0.000185324
0.0225 0.63 0.0175 -0.00502581 0.00232792 -9.57461e-05
0.0275 0.63 0.0175 -0.00494389 0.0159072 -4.44428e-05
0.0325 0.63 0.0175 -0.00433412 0.0284624 -5.17569e-05
0.0375 0.63 0.0175 -0.00335723 0.0392963 -6.78496e-05
0.0425 0.63 0.0175 -0.00223118 0.0477492 -7.47972e-05
0.0475 0.63 0.0175 -0.00109637 0.0525858 -1.32672e-05
0.0525 0.63 0.0175 4.66977e-05 0.0525736 -1.84279e-05
0.0575 0.63 0.0175 0.00121367 0.0477135 -8.38858e-05
0.0625 0.63 0.0175 0.00239093 0.039242 -7.60526e-05
0.0675 0.63 0.0175 0.00343885 0.0284449 -5.31226e-05
0.0725 0.63 0.0175 0.00414716 0.0160595 -3.97991e-05
0.0775 0.63 0.0175 0.00433915 0.00274809 -8.78632e-05
0.0825 0.63 0.0175 0.0039181 -0.0112072 -0.000175988
0.0875 0.63 0.0175 0.0031156 -0.0249314 -0.000191113
0.0925 0.63 0.0175 0.00165694 -0.039224 -2.38031e-05
0.0975 0.63 0.0175 0.000390543 -0.0536187 0.000716449
