# UMean.water  FACE_DATA 80
#  x  y  z  UMean.water_x  UMean.water_y  UMean.water_z  
0.0025 0.08 0.0025 -0.00116735 -0.189085 -0.00151705
0.0075 0.08 0.0025 -0.00764867 -0.141554 0.00122847
0.0125 0.08 0.0025 -0.0108505 -0.0835458 0.000517919
0.0175 0.08 0.0025 -0.0136006 -0.0298903 0.000845349
0.0225 0.08 0.0025 -0.0148675 0.018244 0.000456198
0.0275 0.08 0.0025 -0.014406 0.0568086 -2.75806e-05
0.0325 0.08 0.0025 -0.012202 0.0819091 -0.000612218
0.0375 0.08 0.0025 -0.00884013 0.0900702 -0.000900981
0.0425 0.08 0.0025 -0.00449241 0.0869417 -0.000765643
0.0475 0.08 0.0025 0.000570052 0.0831998 -0.000540565
0.0525 0.08 0.0025 0.00511881 0.0822126 -0.000510253
0.0575 0.08 0.0025 0.00970872 0.0836177 -0.000690604
0.0625 0.08 0.0025 0.0132473 0.0840437 -0.000791306
0.0675 0.08 0.0025 0.0156932 0.0737597 -0.000512942
0.0725 0.08 0.0025 0.0169573 0.0475644 2.61534e-05
0.0775 0.08 0.0025 0.0166199 0.00855069 0.000458763
0.0825 0.08 0.0025 0.0146356 -0.0398098 0.000867488
0.0875 0.08 0.0025 0.0112676 -0.0938218 0.000493209
0.0925 0.08 0.0025 0.0076923 -0.152127 0.00118031
0.0975 0.08 0.0025 0.00115429 -0.199946 -0.00163897
0.0025 0.08 0.0075 -0.00412624 -0.152255 0.000194168
0.0075 0.08 0.0075 -0.00441097 -0.10847 0.00117925
0.0125 0.08 0.0075 -0.00627144 -0.0624986 0.000725961
0.0175 0.08 0.0075 -0.00969563 -0.0147404 0.000455282
0.0225 0.08 0.0075 -0.0122783 0.031939 4.46514e-07
0.0275 0.08 0.0075 -0.0123275 0.0710608 -0.000231848
0.0325 0.08 0.0075 -0.0106452 0.0971394 -0.00033099
0.0375 0.08 0.0075 -0.00786946 0.107141 -0.000420345
0.0425 0.08 0.0075 -0.0040054 0.107169 -0.000299261
0.0475 0.08 0.0075 0.000561384 0.104872 -0.000229956
0.0525 0.08 0.0075 0.0050022 0.103529 -0.000200843
0.0575 0.08 0.0075 0.00913897 0.103036 -0.000231474
0.0625 0.08 0.0075 0.0122296 0.100193 -0.00033242
0.0675 0.08 0.0075 0.0140982 0.087939 -0.000257604
0.0725 0.08 0.0075 0.0148298 0.0606907 -0.000169325
0.0775 0.08 0.0075 0.0138863 0.0212622 4.64488e-05
0.0825 0.08 0.0075 0.0105072 -0.0250923 0.000512445
0.0875 0.08 0.0075 0.006482 -0.0723471 0.000790444
0.0925 0.08 0.0075 0.00434124 -0.118112 0.00125251
0.0975 0.08 0.0075 0.00414682 -0.162479 0.000261621
0.0025 0.08 0.0125 -0.00412623 -0.152255 -0.000194123
0.0075 0.08 0.0125 -0.00441096 -0.10847 -0.00117922
0.0125 0.08 0.0125 -0.00627142 -0.0624986 -0.000725935
0.0175 0.08 0.0125 -0.00969561 -0.0147404 -0.00045526
0.0225 0.08 0.0125 -0.0122783 0.031939 -4.47967e-07
0.0275 0.08 0.0125 -0.0123275 0.0710607 0.000231829
0.0325 0.08 0.0125 -0.0106452 0.0971394 0.000330965
0.0375 0.08 0.0125 -0.00786945 0.107141 0.000420319
0.0425 0.08 0.0125 -0.00400539 0.107169 0.000299232
0.0475 0.08 0.0125 0.000561403 0.104872 0.000229942
0.0525 0.08 0.0125 0.00500222 0.103529 0.000200824
0.0575 0.08 0.0125 0.00913897 0.103036 0.000231415
0.0625 0.08 0.0125 0.0122295 0.100193 0.000332341
0.0675 0.08 0.0125 0.0140982 0.0879388 0.00025754
0.0725 0.08 0.0125 0.0148298 0.0606905 0.000169312
0.0775 0.08 0.0125 0.0138863 0.021262 -4.64123e-05
0.0825 0.08 0.0125 0.0105072 -0.0250924 -0.000512356
0.0875 0.08 0.0125 0.006482 -0.0723472 -0.000790343
0.0925 0.08 0.0125 0.00434124 -0.118112 -0.00125248
0.0975 0.08 0.0125 0.00414683 -0.162479 -0.00026163
0.0025 0.08 0.0175 -0.00116732 -0.189085 0.00151707
0.0075 0.08 0.0175 -0.00764861 -0.141554 -0.00122846
0.0125 0.08 0.0175 -0.0108504 -0.0835459 -0.000517903
0.0175 0.08 0.0175 -0.0136005 -0.0298904 -0.000845347
0.0225 0.08 0.0175 -0.0148675 0.0182439 -0.000456202
0.0275 0.08 0.0175 -0.0144059 0.0568084 2.75653e-05
0.0325 0.08 0.0175 -0.012202 0.081909 0.000612191
0.0375 0.08 0.0175 -0.00884011 0.0900702 0.00090095
0.0425 0.08 0.0175 -0.0044924 0.0869418 0.000765612
0.0475 0.08 0.0175 0.000570089 0.0831999 0.000540543
0.0525 0.08 0.0175 0.00511888 0.0822128 0.000510213
0.0575 0.08 0.0175 0.00970879 0.0836181 0.000690538
0.0625 0.08 0.0175 0.0132474 0.0840442 0.000791229
0.0675 0.08 0.0175 0.0156932 0.07376 0.00051289
0.0725 0.08 0.0175 0.0169572 0.0475644 -2.61313e-05
0.0775 0.08 0.0175 0.0166198 0.00855049 -0.000458666
0.0825 0.08 0.0175 0.0146355 -0.0398101 -0.000867399
0.0875 0.08 0.0175 0.0112676 -0.093822 -0.00049313
0.0925 0.08 0.0175 0.00769232 -0.152127 -0.0011803
0.0975 0.08 0.0175 0.00115431 -0.199946 0.00163898
