# alphaMean.water  FACE_DATA 80
#  x  y  z  alphaMean.water
0.0025 0.63 0.0025 0.958937
0.0075 0.63 0.0025 0.958365
0.0125 0.63 0.0025 0.95816
0.0175 0.63 0.0025 0.956828
0.0225 0.63 0.0025 0.955942
0.0275 0.63 0.0025 0.954842
0.0325 0.63 0.0025 0.954104
0.0375 0.63 0.0025 0.953487
0.0425 0.63 0.0025 0.953092
0.0475 0.63 0.0025 0.95287
0.0525 0.63 0.0025 0.952867
0.0575 0.63 0.0025 0.953086
0.0625 0.63 0.0025 0.95361
0.0675 0.63 0.0025 0.954371
0.0725 0.63 0.0025 0.955345
0.0775 0.63 0.0025 0.956727
0.0825 0.63 0.0025 0.957839
0.0875 0.63 0.0025 0.959557
0.0925 0.63 0.0025 0.96005
0.0975 0.63 0.0025 0.960249
0.0025 0.63 0.0075 0.961185
0.0075 0.63 0.0075 0.946877
0.0125 0.63 0.0075 0.953687
0.0175 0.63 0.0075 0.955126
0.0225 0.63 0.0075 0.954866
0.0275 0.63 0.0075 0.956224
0.0325 0.63 0.0075 0.95695
0.0375 0.63 0.0075 0.957532
0.0425 0.63 0.0075 0.958004
0.0475 0.63 0.0075 0.958309
0.0525 0.63 0.0075 0.958301
0.0575 0.63 0.0075 0.958078
0.0625 0.63 0.0075 0.957586
0.0675 0.63 0.0075 0.956834
0.0725 0.63 0.0075 0.955899
0.0775 0.63 0.0075 0.954449
0.0825 0.63 0.0075 0.954348
0.0875 0.63 0.0075 0.952409
0.0925 0.63 0.0075 0.945706
0.0975 0.63 0.0075 0.962311
0.0025 0.63 0.0125 0.961116
0.0075 0.63 0.0125 0.946563
0.0125 0.63 0.0125 0.953372
0.0175 0.63 0.0125 0.955
0.0225 0.63 0.0125 0.954779
0.0275 0.63 0.0125 0.95626
0.0325 0.63 0.0125 0.957042
0.0375 0.63 0.0125 0.957616
0.0425 0.63 0.0125 0.958086
0.0475 0.63 0.0125 0.958344
0.0525 0.63 0.0125 0.958319
0.0575 0.63 0.0125 0.958138
0.0625 0.63 0.0125 0.957697
0.0675 0.63 0.0125 0.957086
0.0725 0.63 0.0125 0.956196
0.0775 0.63 0.0125 0.954819
0.0825 0.63 0.0125 0.954858
0.0875 0.63 0.0125 0.953096
0.0925 0.63 0.0125 0.946147
0.0975 0.63 0.0125 0.961581
0.0025 0.63 0.0175 0.959155
0.0075 0.63 0.0175 0.958703
0.0125 0.63 0.0175 0.958558
0.0175 0.63 0.0175 0.957045
0.0225 0.63 0.0175 0.95604
0.0275 0.63 0.0175 0.954866
0.0325 0.63 0.0175 0.954064
0.0375 0.63 0.0175 0.953395
0.0425 0.63 0.0175 0.953034
0.0475 0.63 0.0175 0.952807
0.0525 0.63 0.0175 0.952759
0.0575 0.63 0.0175 0.952938
0.0625 0.63 0.0175 0.953382
0.0675 0.63 0.0175 0.954082
0.0725 0.63 0.0175 0.954971
0.0775 0.63 0.0175 0.956159
0.0825 0.63 0.0175 0.957347
0.0875 0.63 0.0175 0.958921
0.0925 0.63 0.0175 0.959204
0.0975 0.63 0.0175 0.9602
