# alphaMean.air  FACE_DATA 80
#  x  y  z  alphaMean.air
0.0025 0.08 0.0025 0.00523486
0.0075 0.08 0.0025 0.00485543
0.0125 0.08 0.0025 0.00418403
0.0175 0.08 0.0025 0.00571996
0.0225 0.08 0.0025 0.0125558
0.0275 0.08 0.0025 0.02439
0.0325 0.08 0.0025 0.0381771
0.0375 0.08 0.0025 0.0432681
0.0425 0.08 0.0025 0.0391416
0.0475 0.08 0.0025 0.0375864
0.0525 0.08 0.0025 0.0380043
0.0575 0.08 0.0025 0.0405213
0.0625 0.08 0.0025 0.0440966
0.0675 0.08 0.0025 0.0392298
0.0725 0.08 0.0025 0.0249407
0.0775 0.08 0.0025 0.0108772
0.0825 0.08 0.0025 0.00380654
0.0875 0.08 0.0025 0.00299372
0.0925 0.08 0.0025 0.00405288
0.0975 0.08 0.0025 0.00506606
0.0025 0.08 0.0075 0.00570062
0.0075 0.08 0.0075 0.00551674
0.0125 0.08 0.0075 0.00280054
0.0175 0.08 0.0075 0.00374711
0.0225 0.08 0.0075 0.0098499
0.0275 0.08 0.0075 0.0218987
0.0325 0.08 0.0075 0.0360152
0.0375 0.08 0.0075 0.0462893
0.0425 0.08 0.0075 0.0434201
0.0475 0.08 0.0075 0.0399029
0.0525 0.08 0.0075 0.0398702
0.0575 0.08 0.0075 0.0445098
0.0625 0.08 0.0075 0.0486037
0.0675 0.08 0.0075 0.0400051
0.0725 0.08 0.0075 0.0243833
0.0775 0.08 0.0075 0.00960584
0.0825 0.08 0.0075 0.00265483
0.0875 0.08 0.0075 0.00134489
0.0925 0.08 0.0075 0.00318857
0.0975 0.08 0.0075 0.00531225
0.0025 0.08 0.0125 0.00554055
0.0075 0.08 0.0125 0.00447838
0.0125 0.08 0.0125 0.0020839
0.0175 0.08 0.0125 0.0020868
0.0225 0.08 0.0125 0.00611326
0.0275 0.08 0.0125 0.0182398
0.0325 0.08 0.0125 0.0336354
0.0375 0.08 0.0125 0.0455551
0.0425 0.08 0.0125 0.0432554
0.0475 0.08 0.0125 0.0389119
0.0525 0.08 0.0125 0.0391622
0.0575 0.08 0.0125 0.0442946
0.0625 0.08 0.0125 0.0495119
0.0675 0.08 0.0125 0.0428095
0.0725 0.08 0.0125 0.0281928
0.0775 0.08 0.0125 0.0142401
0.0825 0.08 0.0125 0.00579973
0.0875 0.08 0.0125 0.00315242
0.0925 0.08 0.0125 0.00547043
0.0975 0.08 0.0125 0.00581973
0.0025 0.08 0.0175 0.00537557
0.0075 0.08 0.0175 0.00487769
0.0125 0.08 0.0175 0.00361546
0.0175 0.08 0.0175 0.00335092
0.0225 0.08 0.0175 0.00740029
0.0275 0.08 0.0175 0.0192666
0.0325 0.08 0.0175 0.0333831
0.0375 0.08 0.0175 0.041224
0.0425 0.08 0.0175 0.0394297
0.0475 0.08 0.0175 0.037189
0.0525 0.08 0.0175 0.0370181
0.0575 0.08 0.0175 0.0394604
0.0625 0.08 0.0175 0.0446748
0.0675 0.08 0.0175 0.042828
0.0725 0.08 0.0175 0.0288562
0.0775 0.08 0.0175 0.0153346
0.0825 0.08 0.0175 0.00709595
0.0875 0.08 0.0175 0.00455875
0.0925 0.08 0.0175 0.0048515
0.0975 0.08 0.0175 0.0050839
