# alphaMean.water  FACE_DATA 80
#  x  y  z  alphaMean.water
0.0025 0.08 0.0025 0.994765
0.0075 0.08 0.0025 0.995145
0.0125 0.08 0.0025 0.995816
0.0175 0.08 0.0025 0.99428
0.0225 0.08 0.0025 0.987444
0.0275 0.08 0.0025 0.97561
0.0325 0.08 0.0025 0.961823
0.0375 0.08 0.0025 0.956732
0.0425 0.08 0.0025 0.960858
0.0475 0.08 0.0025 0.962414
0.0525 0.08 0.0025 0.961996
0.0575 0.08 0.0025 0.959479
0.0625 0.08 0.0025 0.955903
0.0675 0.08 0.0025 0.96077
0.0725 0.08 0.0025 0.975059
0.0775 0.08 0.0025 0.989123
0.0825 0.08 0.0025 0.996193
0.0875 0.08 0.0025 0.997006
0.0925 0.08 0.0025 0.995947
0.0975 0.08 0.0025 0.994934
0.0025 0.08 0.0075 0.994299
0.0075 0.08 0.0075 0.994483
0.0125 0.08 0.0075 0.997199
0.0175 0.08 0.0075 0.996253
0.0225 0.08 0.0075 0.99015
0.0275 0.08 0.0075 0.978101
0.0325 0.08 0.0075 0.963985
0.0375 0.08 0.0075 0.953711
0.0425 0.08 0.0075 0.95658
0.0475 0.08 0.0075 0.960097
0.0525 0.08 0.0075 0.96013
0.0575 0.08 0.0075 0.95549
0.0625 0.08 0.0075 0.951396
0.0675 0.08 0.0075 0.959995
0.0725 0.08 0.0075 0.975617
0.0775 0.08 0.0075 0.990394
0.0825 0.08 0.0075 0.997345
0.0875 0.08 0.0075 0.998655
0.0925 0.08 0.0075 0.996811
0.0975 0.08 0.0075 0.994688
0.0025 0.08 0.0125 0.994459
0.0075 0.08 0.0125 0.995522
0.0125 0.08 0.0125 0.997916
0.0175 0.08 0.0125 0.997913
0.0225 0.08 0.0125 0.993887
0.0275 0.08 0.0125 0.98176
0.0325 0.08 0.0125 0.966365
0.0375 0.08 0.0125 0.954445
0.0425 0.08 0.0125 0.956745
0.0475 0.08 0.0125 0.961088
0.0525 0.08 0.0125 0.960838
0.0575 0.08 0.0125 0.955705
0.0625 0.08 0.0125 0.950488
0.0675 0.08 0.0125 0.95719
0.0725 0.08 0.0125 0.971807
0.0775 0.08 0.0125 0.98576
0.0825 0.08 0.0125 0.9942
0.0875 0.08 0.0125 0.996848
0.0925 0.08 0.0125 0.99453
0.0975 0.08 0.0125 0.99418
0.0025 0.08 0.0175 0.994624
0.0075 0.08 0.0175 0.995122
0.0125 0.08 0.0175 0.996385
0.0175 0.08 0.0175 0.996649
0.0225 0.08 0.0175 0.9926
0.0275 0.08 0.0175 0.980733
0.0325 0.08 0.0175 0.966617
0.0375 0.08 0.0175 0.958776
0.0425 0.08 0.0175 0.96057
0.0475 0.08 0.0175 0.962811
0.0525 0.08 0.0175 0.962982
0.0575 0.08 0.0175 0.96054
0.0625 0.08 0.0175 0.955325
0.0675 0.08 0.0175 0.957172
0.0725 0.08 0.0175 0.971144
0.0775 0.08 0.0175 0.984665
0.0825 0.08 0.0175 0.992904
0.0875 0.08 0.0175 0.995441
0.0925 0.08 0.0175 0.995149
0.0975 0.08 0.0175 0.994916
