# alphaMean.air  FACE_DATA 80
#  x  y  z  alphaMean.air
0.0025 0.63 0.0025 0.0410627
0.0075 0.63 0.0025 0.0416354
0.0125 0.63 0.0025 0.0418403
0.0175 0.63 0.0025 0.0431717
0.0225 0.63 0.0025 0.0440582
0.0275 0.63 0.0025 0.0451584
0.0325 0.63 0.0025 0.045896
0.0375 0.63 0.0025 0.0465127
0.0425 0.63 0.0025 0.0469085
0.0475 0.63 0.0025 0.0471302
0.0525 0.63 0.0025 0.0471334
0.0575 0.63 0.0025 0.0469142
0.0625 0.63 0.0025 0.0463902
0.0675 0.63 0.0025 0.0456287
0.0725 0.63 0.0025 0.0446553
0.0775 0.63 0.0025 0.0432727
0.0825 0.63 0.0025 0.042161
0.0875 0.63 0.0025 0.040443
0.0925 0.63 0.0025 0.0399496
0.0975 0.63 0.0025 0.039751
0.0025 0.63 0.0075 0.0388145
0.0075 0.63 0.0075 0.053123
0.0125 0.63 0.0075 0.0463134
0.0175 0.63 0.0075 0.044874
0.0225 0.63 0.0075 0.0451336
0.0275 0.63 0.0075 0.0437756
0.0325 0.63 0.0075 0.0430496
0.0375 0.63 0.0075 0.0424684
0.0425 0.63 0.0075 0.0419965
0.0475 0.63 0.0075 0.0416915
0.0525 0.63 0.0075 0.041699
0.0575 0.63 0.0075 0.0419221
0.0625 0.63 0.0075 0.0424135
0.0675 0.63 0.0075 0.0431662
0.0725 0.63 0.0075 0.0441011
0.0775 0.63 0.0075 0.0455507
0.0825 0.63 0.0075 0.0456517
0.0875 0.63 0.0075 0.0475905
0.0925 0.63 0.0075 0.0542943
0.0975 0.63 0.0075 0.0376892
0.0025 0.63 0.0125 0.0388837
0.0075 0.63 0.0125 0.0534372
0.0125 0.63 0.0125 0.0466275
0.0175 0.63 0.0125 0.0449999
0.0225 0.63 0.0125 0.0452207
0.0275 0.63 0.0125 0.0437403
0.0325 0.63 0.0125 0.0429577
0.0375 0.63 0.0125 0.0423838
0.0425 0.63 0.0125 0.0419136
0.0475 0.63 0.0125 0.0416561
0.0525 0.63 0.0125 0.0416811
0.0575 0.63 0.0125 0.0418621
0.0625 0.63 0.0125 0.0423028
0.0675 0.63 0.0125 0.042914
0.0725 0.63 0.0125 0.0438038
0.0775 0.63 0.0125 0.0451813
0.0825 0.63 0.0125 0.0451421
0.0875 0.63 0.0125 0.0469039
0.0925 0.63 0.0125 0.053853
0.0975 0.63 0.0125 0.038419
0.0025 0.63 0.0175 0.0408455
0.0075 0.63 0.0175 0.0412969
0.0125 0.63 0.0175 0.0414419
0.0175 0.63 0.0175 0.0429549
0.0225 0.63 0.0175 0.0439602
0.0275 0.63 0.0175 0.0451339
0.0325 0.63 0.0175 0.0459364
0.0375 0.63 0.0175 0.0466053
0.0425 0.63 0.0175 0.0469658
0.0475 0.63 0.0175 0.047193
0.0525 0.63 0.0175 0.0472407
0.0575 0.63 0.0175 0.0470623
0.0625 0.63 0.0175 0.0466176
0.0675 0.63 0.0175 0.0459175
0.0725 0.63 0.0175 0.0450291
0.0775 0.63 0.0175 0.0438406
0.0825 0.63 0.0175 0.042653
0.0875 0.63 0.0175 0.0410789
0.0925 0.63 0.0175 0.0407964
0.0975 0.63 0.0175 0.0398004
