# pMean  FACE_DATA 80
#  x  y  z  pMean
0.0025 0.08 0.0025 108582
0.0075 0.08 0.0025 108582
0.0125 0.08 0.0025 108581
0.0175 0.08 0.0025 108581
0.0225 0.08 0.0025 108580
0.0275 0.08 0.0025 108580
0.0325 0.08 0.0025 108578
0.0375 0.08 0.0025 108577
0.0425 0.08 0.0025 108577
0.0475 0.08 0.0025 108576
0.0525 0.08 0.0025 108577
0.0575 0.08 0.0025 108577
0.0625 0.08 0.0025 108578
0.0675 0.08 0.0025 108579
0.0725 0.08 0.0025 108580
0.0775 0.08 0.0025 108581
0.0825 0.08 0.0025 108581
0.0875 0.08 0.0025 108582
0.0925 0.08 0.0025 108582
0.0975 0.08 0.0025 108583
0.0025 0.08 0.0075 108582
0.0075 0.08 0.0075 108581
0.0125 0.08 0.0075 108581
0.0175 0.08 0.0075 108581
0.0225 0.08 0.0075 108580
0.0275 0.08 0.0075 108579
0.0325 0.08 0.0075 108578
0.0375 0.08 0.0075 108577
0.0425 0.08 0.0075 108576
0.0475 0.08 0.0075 108576
0.0525 0.08 0.0075 108576
0.0575 0.08 0.0075 108577
0.0625 0.08 0.0075 108577
0.0675 0.08 0.0075 108578
0.0725 0.08 0.0075 108579
0.0775 0.08 0.0075 108580
0.0825 0.08 0.0075 108581
0.0875 0.08 0.0075 108582
0.0925 0.08 0.0075 108582
0.0975 0.08 0.0075 108583
0.0025 0.08 0.0125 108582
0.0075 0.08 0.0125 108581
0.0125 0.08 0.0125 108581
0.0175 0.08 0.0125 108581
0.0225 0.08 0.0125 108580
0.0275 0.08 0.0125 108580
0.0325 0.08 0.0125 108579
0.0375 0.08 0.0125 108577
0.0425 0.08 0.0125 108577
0.0475 0.08 0.0125 108576
0.0525 0.08 0.0125 108576
0.0575 0.08 0.0125 108576
0.0625 0.08 0.0125 108577
0.0675 0.08 0.0125 108578
0.0725 0.08 0.0125 108579
0.0775 0.08 0.0125 108580
0.0825 0.08 0.0125 108581
0.0875 0.08 0.0125 108581
0.0925 0.08 0.0125 108582
0.0975 0.08 0.0125 108582
0.0025 0.08 0.0175 108582
0.0075 0.08 0.0175 108582
0.0125 0.08 0.0175 108581
0.0175 0.08 0.0175 108581
0.0225 0.08 0.0175 108580
0.0275 0.08 0.0175 108580
0.0325 0.08 0.0175 108579
0.0375 0.08 0.0175 108578
0.0425 0.08 0.0175 108577
0.0475 0.08 0.0175 108577
0.0525 0.08 0.0175 108577
0.0575 0.08 0.0175 108577
0.0625 0.08 0.0175 108578
0.0675 0.08 0.0175 108578
0.0725 0.08 0.0175 108580
0.0775 0.08 0.0175 108581
0.0825 0.08 0.0175 108581
0.0875 0.08 0.0175 108582
0.0925 0.08 0.0175 108582
0.0975 0.08 0.0175 108583
