# UMean.air  FACE_DATA 80
#  x  y  z  UMean.air_x  UMean.air_y  UMean.air_z  
0.0025 0.08 0.0025 0.00525638 0.0942329 0.00180847
0.0075 0.08 0.0025 0.00697508 0.11564 0.0046499
0.0125 0.08 0.0025 0.00615286 0.155407 0.00467324
0.0175 0.08 0.0025 0.00430508 0.200576 0.00232038
0.0225 0.08 0.0025 0.00499674 0.24544 -0.0017342
0.0275 0.08 0.0025 0.00750518 0.286471 -0.00628567
0.0325 0.08 0.0025 0.0108885 0.313549 -0.00800183
0.0375 0.08 0.0025 0.0112448 0.322839 -0.00655741
0.0425 0.08 0.0025 0.00788 0.322999 -0.0040727
0.0475 0.08 0.0025 0.00173153 0.325168 -0.00304853
0.0525 0.08 0.0025 -0.00463655 0.325387 -0.00341252
0.0575 0.08 0.0025 -0.0100849 0.323724 -0.00445858
0.0625 0.08 0.0025 -0.011769 0.324366 -0.00628756
0.0675 0.08 0.0025 -0.0101396 0.315046 -0.0066399
0.0725 0.08 0.0025 -0.00939529 0.283094 -0.00546863
0.0775 0.08 0.0025 -0.0092462 0.238445 -0.00203803
0.0825 0.08 0.0025 -0.00922715 0.1909 0.000754846
0.0875 0.08 0.0025 -0.0101602 0.144518 0.00198964
0.0925 0.08 0.0025 -0.00958268 0.107939 0.00188331
0.0975 0.08 0.0025 -0.00651489 0.0918039 0.000148192
0.0025 0.08 0.0075 0.00686733 0.103139 0.00453553
0.0075 0.08 0.0075 0.0109685 0.126831 0.00733149
0.0125 0.08 0.0075 0.0101913 0.156661 0.00814899
0.0175 0.08 0.0075 0.00908652 0.19401 0.0060163
0.0225 0.08 0.0075 0.00775311 0.241078 0.00106492
0.0275 0.08 0.0075 0.00773903 0.292406 -0.00538553
0.0325 0.08 0.0075 0.0102123 0.330226 -0.00917563
0.0375 0.08 0.0075 0.0121014 0.334033 -0.00940806
0.0425 0.08 0.0075 0.00903417 0.328054 -0.00632368
0.0475 0.08 0.0075 0.00323447 0.329396 -0.00341322
0.0525 0.08 0.0075 -0.00298918 0.329036 -0.00120794
0.0575 0.08 0.0075 -0.00697694 0.331375 -0.00155895
0.0625 0.08 0.0075 -0.00641608 0.34347 -0.00398595
0.0675 0.08 0.0075 -0.00281929 0.342302 -0.00528609
0.0725 0.08 0.0075 -0.00399021 0.303028 -0.00476795
0.0775 0.08 0.0075 -0.00695755 0.244291 -0.0025082
0.0825 0.08 0.0075 -0.0093662 0.191974 -0.000209787
0.0875 0.08 0.0075 -0.00993542 0.15373 0.0010671
0.0925 0.08 0.0075 -0.0101136 0.124401 0.00186598
0.0975 0.08 0.0075 -0.00629104 0.103417 0.000589169
0.0025 0.08 0.0125 0.00806215 0.102433 -0.000313286
0.0075 0.08 0.0125 0.0142608 0.121863 -0.0010639
0.0125 0.08 0.0125 0.0158976 0.144634 0.000896653
0.0175 0.08 0.0125 0.0154973 0.173966 0.00110107
0.0225 0.08 0.0125 0.0141294 0.216562 0.00146463
0.0275 0.08 0.0125 0.0113719 0.273909 0.00172128
0.0325 0.08 0.0125 0.0117794 0.323087 0.00157672
0.0375 0.08 0.0125 0.0154097 0.332847 0.000911859
0.0425 0.08 0.0125 0.0149104 0.321514 -0.000447569
0.0475 0.08 0.0125 0.00997611 0.32344 -0.000101979
0.0525 0.08 0.0125 0.00248626 0.328783 0.0026129
0.0575 0.08 0.0125 -0.00234936 0.334547 0.00547633
0.0625 0.08 0.0125 -0.00416632 0.345223 0.0075841
0.0675 0.08 0.0125 -0.00117081 0.345504 0.0073005
0.0725 0.08 0.0125 -0.000269082 0.315496 0.00529511
0.0775 0.08 0.0125 -0.000833221 0.260905 0.00121109
0.0825 0.08 0.0125 -0.00268537 0.206749 -0.00284433
0.0875 0.08 0.0125 -0.00517214 0.163524 -0.00522135
0.0925 0.08 0.0125 -0.00821782 0.131763 -0.00654579
0.0975 0.08 0.0125 -0.0057445 0.106803 -0.00432031
0.0025 0.08 0.0175 0.00821308 0.0905393 -0.000394964
0.0075 0.08 0.0175 0.0142283 0.102378 -0.0015364
0.0125 0.08 0.0175 0.0173512 0.127962 -0.0012918
0.0175 0.08 0.0175 0.0149214 0.164719 -0.00129287
0.0225 0.08 0.0175 0.0134499 0.20745 0.00109102
0.0275 0.08 0.0175 0.0141948 0.253988 0.00390763
0.0325 0.08 0.0175 0.0172309 0.292676 0.00584208
0.0375 0.08 0.0175 0.0189339 0.311849 0.00516653
0.0425 0.08 0.0175 0.0162499 0.315097 0.00346573
0.0475 0.08 0.0175 0.00973183 0.319841 0.00198707
0.0525 0.08 0.0175 0.00283197 0.327186 0.00208106
0.0575 0.08 0.0175 -0.00250156 0.331384 0.00371442
0.0625 0.08 0.0175 -0.00528611 0.333649 0.00576705
0.0675 0.08 0.0175 -0.00507587 0.323361 0.00698859
0.0725 0.08 0.0175 -0.00443669 0.297308 0.00578669
0.0775 0.08 0.0175 -0.00224888 0.255402 0.00245341
0.0825 0.08 0.0175 -0.00205284 0.208911 -0.00073947
0.0875 0.08 0.0175 -0.00447972 0.163401 -0.00232295
0.0925 0.08 0.0175 -0.005642 0.125409 -0.00354348
0.0975 0.08 0.0175 -0.00464736 0.102502 -0.00162423
