# UMean.water  FACE_DATA 80
#  x  y  z  UMean.water_x  UMean.water_y  UMean.water_z  
0.0025 0.63 0.0025 -0.000137548 -0.0214374 -0.00011748
0.0075 0.63 0.0025 -0.000338215 -0.011684 -8.35239e-05
0.0125 0.63 0.0025 -0.000539351 -0.00722725 -2.41324e-05
0.0175 0.63 0.0025 -0.000620088 -0.00270849 6.28266e-05
0.0225 0.63 0.0025 -0.0006647 0.00165363 0.00013386
0.0275 0.63 0.0025 -0.000605279 0.00560636 0.000200505
0.0325 0.63 0.0025 -0.000543192 0.00866796 0.000268644
0.0375 0.63 0.0025 -0.000375277 0.011027 0.000304506
0.0425 0.63 0.0025 -0.000176528 0.0125081 0.000311761
0.0475 0.63 0.0025 9.86925e-05 0.0131335 0.000303728
0.0525 0.63 0.0025 0.000346681 0.0128864 0.000294896
0.0575 0.63 0.0025 0.000604725 0.011741 0.000273579
0.0625 0.63 0.0025 0.000778325 0.0096736 0.000241746
0.0675 0.63 0.0025 0.000950174 0.00680089 0.000187151
0.0725 0.63 0.0025 0.00102919 0.0031204 0.000112022
0.0775 0.63 0.0025 0.00110638 -0.00157343 6.12075e-05
0.0825 0.63 0.0025 0.00101654 -0.00674447 9.06375e-07
0.0875 0.63 0.0025 0.00086523 -0.0125347 -6.56233e-05
0.0925 0.63 0.0025 0.000540691 -0.0182251 -0.0001131
0.0975 0.63 0.0025 0.000184118 -0.0278831 -0.000136323
0.0025 0.63 0.0075 -0.000212261 -0.0208711 -1.61144e-05
0.0075 0.63 0.0075 -0.000292709 0.010381 4.49832e-05
0.0125 0.63 0.0075 -0.000462773 0.00712668 2.1712e-05
0.0175 0.63 0.0075 -0.000498495 0.00447808 5.9616e-05
0.0225 0.63 0.0075 -0.000565753 0.00497149 0.000113227
0.0275 0.63 0.0075 -0.000527205 0.00346557 0.000166466
0.0325 0.63 0.0075 -0.000459427 0.00231544 0.000212005
0.0375 0.63 0.0075 -0.000299531 0.00139632 0.000239924
0.0425 0.63 0.0075 -0.000121124 0.000528948 0.000247442
0.0475 0.63 0.0075 0.000121887 -0.000159407 0.000235106
0.0525 0.63 0.0075 0.000339755 -0.000432357 0.000215754
0.0575 0.63 0.0075 0.000581618 -0.000337458 0.000183138
0.0625 0.63 0.0075 0.000746322 0.000198321 0.000144472
0.0675 0.63 0.0075 0.000899947 0.00120037 0.000102044
0.0725 0.63 0.0075 0.000958516 0.00254382 5.57842e-05
0.0775 0.63 0.0075 0.00100256 0.00415451 3.33707e-05
0.0825 0.63 0.0075 0.000902649 0.00417864 2.49203e-06
0.0875 0.63 0.0075 0.000803269 0.00676954 1.5504e-05
0.0925 0.63 0.0075 0.000479914 0.008747 6.65423e-05
0.0975 0.63 0.0075 0.0002841 -0.0255441 -4.17366e-05
0.0025 0.63 0.0125 -0.000211456 -0.020899 6.47092e-05
0.0075 0.63 0.0125 -0.00029325 0.0105442 7.48486e-07
0.0125 0.63 0.0125 -0.000454508 0.00731106 3.20818e-05
0.0175 0.63 0.0125 -0.000493225 0.00444527 1.60093e-05
0.0225 0.63 0.0125 -0.000561501 0.00484939 -2.12092e-05
0.0275 0.63 0.0125 -0.000515569 0.00316962 -5.07379e-05
0.0325 0.63 0.0125 -0.000440175 0.00193313 -7.59445e-05
0.0375 0.63 0.0125 -0.000277474 0.0010165 -9.67216e-05
0.0425 0.63 0.0125 -0.000106689 0.000172202 -0.000121353
0.0475 0.63 0.0125 0.000118919 -0.00039504 -0.000143888
0.0525 0.63 0.0125 0.000327287 -0.000533394 -0.000154689
0.0575 0.63 0.0125 0.000568951 -0.000362975 -0.00016367
0.0625 0.63 0.0125 0.000742074 0.000189075 -0.000165837
0.0675 0.63 0.0125 0.00089916 0.00110796 -0.000152615
0.0725 0.63 0.0125 0.000963609 0.00242285 -0.000110744
0.0775 0.63 0.0125 0.00101155 0.00395209 -6.82801e-05
0.0825 0.63 0.0125 0.000911534 0.00375879 -1.87955e-05
0.0875 0.63 0.0125 0.000808091 0.00625776 -1.18274e-05
0.0925 0.63 0.0125 0.000503603 0.00873805 -7.26456e-05
0.0975 0.63 0.0125 0.000287586 -0.024131 1.49983e-05
0.0025 0.63 0.0175 -0.000125959 -0.0223818 0.00013039
0.0075 0.63 0.0175 -0.000333754 -0.012723 0.000125149
0.0125 0.63 0.0175 -0.000535393 -0.00832054 7.41295e-05
0.0175 0.63 0.0175 -0.000618908 -0.00353018 -1.3078e-05
0.0225 0.63 0.0175 -0.000669064 0.00107824 -7.91046e-05
0.0275 0.63 0.0175 -0.000603327 0.00512476 -0.000131222
0.0325 0.63 0.0175 -0.000522219 0.00825059 -0.00018817
0.0375 0.63 0.0175 -0.000341252 0.0106476 -0.000224711
0.0425 0.63 0.0175 -0.00014226 0.0121021 -0.000249859
0.0475 0.63 0.0175 0.000106835 0.0128713 -0.00027069
0.0525 0.63 0.0175 0.00032945 0.0129393 -0.000285378
0.0575 0.63 0.0175 0.00058032 0.0121609 -0.000284076
0.0625 0.63 0.0175 0.000766117 0.0104659 -0.000266301
0.0675 0.63 0.0175 0.000949217 0.00791961 -0.000222967
0.0725 0.63 0.0175 0.00103396 0.00459563 -0.000156103
0.0775 0.63 0.0175 0.00111607 0.00025733 -9.968e-05
0.0825 0.63 0.0175 0.00102744 -0.00493492 -2.99034e-05
0.0875 0.63 0.0175 0.000884884 -0.0103865 2.85442e-05
0.0925 0.63 0.0175 0.00056086 -0.0156587 7.60338e-05
0.0975 0.63 0.0175 0.000201974 -0.0262551 0.000131345
