# UMean.air  FACE_DATA 80
#  x  y  z  UMean.air_x  UMean.air_y  UMean.air_z  
0.0025 0.63 0.0025 -0.000601046 0.202486 -3.21668e-05
0.0075 0.63 0.0025 -0.00160265 0.212222 0.000163033
0.0125 0.63 0.0025 -0.00194639 0.216715 -9.66234e-05
0.0175 0.63 0.0025 -0.00184422 0.221228 5.27365e-05
0.0225 0.63 0.0025 -0.00183792 0.225592 0.000313683
0.0275 0.63 0.0025 -0.00165515 0.229541 0.000378955
0.0325 0.63 0.0025 -0.00142128 0.232612 0.000500117
0.0375 0.63 0.0025 -0.00103727 0.234979 0.000566074
0.0425 0.63 0.0025 -0.000581806 0.236464 0.000572521
0.0475 0.63 0.0025 -3.34078e-06 0.237086 0.000541081
0.0525 0.63 0.0025 0.000547671 0.236834 0.000516453
0.0575 0.63 0.0025 0.00111071 0.235679 0.000442115
0.0625 0.63 0.0025 0.00157749 0.233606 0.000375401
0.0675 0.63 0.0025 0.00204721 0.230734 0.000312785
0.0725 0.63 0.0025 0.00238914 0.227055 0.000238965
0.0775 0.63 0.0025 0.00264874 0.222375 0.000307338
0.0825 0.63 0.0025 0.00260473 0.217204 7.23047e-05
0.0875 0.63 0.0025 0.002579 0.211427 7.34116e-05
0.0925 0.63 0.0025 0.00193798 0.205697 0.000291525
0.0975 0.63 0.0025 0.000639593 0.196066 -0.000125389
0.0025 0.63 0.0075 -0.000151724 0.203134 0.000110801
0.0075 0.63 0.0075 -0.000210065 0.233944 0.00031062
0.0125 0.63 0.0075 -0.000209082 0.230949 -4.32953e-05
0.0175 0.63 0.0075 -0.000149679 0.228351 7.49599e-05
0.0225 0.63 0.0075 -0.000318568 0.228831 0.000320821
0.0275 0.63 0.0075 -0.00022541 0.22738 0.000371922
0.0325 0.63 0.0075 -0.000156236 0.226261 0.000478966
0.0375 0.63 0.0075 -4.86933e-05 0.22537 0.000545418
0.0425 0.63 0.0075 7.06304e-05 0.224527 0.000559503
0.0475 0.63 0.0075 0.000233937 0.223854 0.000511956
0.0525 0.63 0.0075 0.000345772 0.223579 0.000455416
0.0575 0.63 0.0075 0.000483364 0.223661 0.000338761
0.0625 0.63 0.0075 0.000530533 0.224169 0.000249948
0.0675 0.63 0.0075 0.000573277 0.225138 0.000198527
0.0725 0.63 0.0075 0.000608996 0.226446 0.000158756
0.0775 0.63 0.0075 0.000711916 0.227993 0.000264104
0.0825 0.63 0.0075 0.000571714 0.22801 5.853e-05
0.0875 0.63 0.0075 0.000724121 0.230506 0.000173499
0.0925 0.63 0.0075 0.000384601 0.232213 0.000468603
0.0975 0.63 0.0075 7.07913e-05 0.198462 -0.000117854
0.0025 0.63 0.0125 -0.000105198 0.203103 3.27104e-05
0.0075 0.63 0.0125 -0.000148693 0.234098 -0.000231263
0.0125 0.63 0.0125 -0.000167361 0.23112 0.00011096
0.0175 0.63 0.0125 -0.000102058 0.228309 8.6198e-05
0.0225 0.63 0.0125 -0.000261113 0.228699 -0.000100333
0.0275 0.63 0.0125 -0.000164235 0.227079 -9.11392e-05
0.0325 0.63 0.0125 -0.000104977 0.225873 -0.000152039
0.0375 0.63 0.0125 -8.20136e-06 0.224982 -0.000217259
0.0425 0.63 0.0125 9.26342e-05 0.22416 -0.00028257
0.0475 0.63 0.0125 0.000221337 0.223606 -0.000344144
0.0525 0.63 0.0125 0.000316545 0.22347 -0.000379753
0.0575 0.63 0.0125 0.000461117 0.223634 -0.000393079
0.0625 0.63 0.0125 0.00052306 0.224165 -0.000393528
0.0675 0.63 0.0125 0.000576249 0.225058 -0.000348752
0.0725 0.63 0.0125 0.000629357 0.226339 -0.000270431
0.0775 0.63 0.0125 0.000750385 0.227805 -0.000277961
0.0825 0.63 0.0125 0.000595254 0.227608 -2.71411e-05
0.0875 0.63 0.0125 0.00073622 0.230018 -3.80755e-05
0.0925 0.63 0.0125 0.000484904 0.232219 -0.000457507
0.0975 0.63 0.0125 0.000138376 0.199858 -0.000139301
0.0025 0.63 0.0175 -0.000568351 0.201544 5.66794e-05
0.0075 0.63 0.0175 -0.00160536 0.211182 -0.000106847
0.0125 0.63 0.0175 -0.00201591 0.215621 0.000148044
0.0175 0.63 0.0175 -0.00195256 0.220398 2.20326e-05
0.0225 0.63 0.0175 -0.00195233 0.225002 -0.00019277
0.0275 0.63 0.0175 -0.00170316 0.229038 -0.000203063
0.0325 0.63 0.0175 -0.00138193 0.232166 -0.000302694
0.0375 0.63 0.0175 -0.000950312 0.234564 -0.000392947
0.0425 0.63 0.0175 -0.000512395 0.236023 -0.000468205
0.0475 0.63 0.0175 -2.46353e-05 0.236794 -0.000516619
0.0525 0.63 0.0175 0.000441578 0.236864 -0.000535593
0.0575 0.63 0.0175 0.000975057 0.236089 -0.000507841
0.0625 0.63 0.0175 0.00144091 0.234396 -0.000474088
0.0675 0.63 0.0175 0.00189618 0.231854 -0.000398411
0.0725 0.63 0.0175 0.00223215 0.22853 -0.000297571
0.0775 0.63 0.0175 0.00252028 0.224197 -0.000296908
0.0825 0.63 0.0175 0.00249869 0.219005 -2.67863e-05
0.0875 0.63 0.0175 0.00252492 0.213562 -1.77967e-06
0.0925 0.63 0.0175 0.00199522 0.208245 -0.000276126
0.0975 0.63 0.0175 0.000711062 0.197689 6.10398e-05
