# UMean.water  FACE_DATA 80
#  x  y  z  UMean.water_x  UMean.water_y  UMean.water_z  
0.0025 0.08 0.0025 0.00575203 -0.145867 0.000761723
0.0075 0.08 0.0025 0.00982774 -0.124871 0.00275247
0.0125 0.08 0.0025 0.012521 -0.0840905 0.0029954
0.0175 0.08 0.0025 0.0114938 -0.036662 0.00147719
0.0225 0.08 0.0025 0.0103323 0.0100755 -0.0013147
0.0275 0.08 0.0025 0.00972127 0.0524776 -0.0040084
0.0325 0.08 0.0025 0.00974845 0.0810898 -0.00375817
0.0375 0.08 0.0025 0.00863296 0.0908197 -0.00201613
0.0425 0.08 0.0025 0.00591666 0.0929682 -0.00104148
0.0475 0.08 0.0025 0.00158461 0.0951219 2.92974e-06
0.0525 0.08 0.0025 -0.003479 0.0949911 0.000490522
0.0575 0.08 0.0025 -0.0080183 0.0932148 0.000185308
0.0625 0.08 0.0025 -0.00985516 0.0917711 -0.00102272
0.0675 0.08 0.0025 -0.0102625 0.0809956 -0.00224202
0.0725 0.08 0.0025 -0.0123183 0.0491442 -0.00168588
0.0775 0.08 0.0025 -0.0148699 0.00319016 0.000317612
0.0825 0.08 0.0025 -0.0163636 -0.0444719 0.00185813
0.0875 0.08 0.0025 -0.0160629 -0.0911202 0.00178269
0.0925 0.08 0.0025 -0.0116335 -0.127575 0.000854043
0.0975 0.08 0.0025 -0.00618218 -0.143519 -0.000673362
0.0025 0.08 0.0075 0.00543203 -0.135353 0.00372699
0.0075 0.08 0.0075 0.0119261 -0.111723 0.00529336
0.0125 0.08 0.0075 0.0165171 -0.0819463 0.0052749
0.0175 0.08 0.0075 0.0183159 -0.0442564 0.00344793
0.0225 0.08 0.0075 0.0177575 0.00469769 -0.000180318
0.0275 0.08 0.0075 0.0139635 0.0571791 -0.00376357
0.0325 0.08 0.0075 0.0106753 0.0960888 -0.00450744
0.0375 0.08 0.0075 0.00914847 0.100977 -0.00382752
0.0425 0.08 0.0075 0.00642696 0.0973419 -0.00266658
0.0475 0.08 0.0075 0.00294921 0.0988115 -0.000737585
0.0525 0.08 0.0075 -0.00122674 0.098156 0.00185718
0.0575 0.08 0.0075 -0.00334914 0.0997862 0.00214979
0.0625 0.08 0.0075 -0.00358136 0.10906 0.0005281
0.0675 0.08 0.0075 -0.0043847 0.107635 -0.000835887
0.0725 0.08 0.0075 -0.0109659 0.0687298 -0.000550436
0.0775 0.08 0.0075 -0.0173592 0.00920099 0.000780321
0.0825 0.08 0.0075 -0.01895 -0.0427918 0.00168963
0.0875 0.08 0.0075 -0.0161415 -0.0813148 0.00165477
0.0925 0.08 0.0075 -0.0112926 -0.111394 0.00128461
0.0975 0.08 0.0075 -0.00503345 -0.132034 -2.22977e-05
0.0025 0.08 0.0125 0.00644219 -0.134484 0.000469033
0.0075 0.08 0.0125 0.0139671 -0.115279 -0.00041919
0.0125 0.08 0.0125 0.0201031 -0.0921455 0.000121466
0.0175 0.08 0.0125 0.0233824 -0.0631095 -0.0011073
0.0225 0.08 0.0125 0.024722 -0.0204327 -0.00211454
0.0275 0.08 0.0125 0.0199179 0.0384502 -0.00235378
0.0325 0.08 0.0125 0.014309 0.0887705 -0.00255159
0.0375 0.08 0.0125 0.0135768 0.0988966 -0.00247981
0.0425 0.08 0.0125 0.0119258 0.0897234 -0.00311564
0.0475 0.08 0.0125 0.00907747 0.0925374 -0.00283276
0.0525 0.08 0.0125 0.00438727 0.0983507 -0.000400314
0.0575 0.08 0.0125 0.00156024 0.103975 0.00142433
0.0625 0.08 0.0125 -0.000165037 0.111762 0.00169356
0.0675 0.08 0.0125 -0.00112047 0.11111 0.00202206
0.0725 0.08 0.0125 -0.00582592 0.0811724 0.00242659
0.0775 0.08 0.0125 -0.0105013 0.0266726 0.000949328
0.0825 0.08 0.0125 -0.0130151 -0.0275765 -0.00162585
0.0875 0.08 0.0125 -0.0126822 -0.0709387 -0.00311351
0.0925 0.08 0.0125 -0.00988569 -0.103288 -0.00422902
0.0975 0.08 0.0125 -0.00444662 -0.128191 -0.00313571
0.0025 0.08 0.0175 0.00768147 -0.145703 0.000584821
0.0075 0.08 0.0175 0.0146292 -0.134252 -0.000489259
0.0125 0.08 0.0175 0.0210451 -0.108468 -0.000842242
0.0175 0.08 0.0175 0.0216431 -0.0721137 -0.00188132
0.0225 0.08 0.0175 0.0204278 -0.0290689 -0.000729093
0.0275 0.08 0.0175 0.0191203 0.0179195 0.00076176
0.0325 0.08 0.0175 0.0186925 0.0579453 0.00149783
0.0375 0.08 0.0175 0.0182497 0.0790367 0.000709998
0.0425 0.08 0.0175 0.015318 0.0846529 -0.000526026
0.0475 0.08 0.0175 0.00993792 0.0895562 -0.00122697
0.0525 0.08 0.0175 0.00446753 0.0970994 -0.00101331
0.0575 0.08 0.0175 0.000263186 0.101552 -0.000233374
0.0625 0.08 0.0175 -0.00263867 0.100754 0.000247064
0.0675 0.08 0.0175 -0.00446791 0.091242 0.00167902
0.0725 0.08 0.0175 -0.00644176 0.0646109 0.00249647
0.0775 0.08 0.0175 -0.0070035 0.0219764 0.00121466
0.0825 0.08 0.0175 -0.00847768 -0.0255242 -0.000378698
0.0875 0.08 0.0175 -0.0101109 -0.0708993 -0.000975126
0.0925 0.08 0.0175 -0.00842689 -0.109392 -0.00163333
0.0975 0.08 0.0175 -0.00511732 -0.132343 -0.000305625
