# Residuals   
# Time        	p_rgh         
0             	N/A
0.005         	1.000000e+00
0.01          	4.338606e-02
0.015         	9.865106e-01
0.02          	9.904050e-01
0.025         	9.999997e-01
0.03          	nan
