# alphaMean.water  FACE_DATA 80
#  x  y  z  alphaMean.water
0.0025 0.08 0.0025 0.988801
0.0075 0.08 0.0025 0.989826
0.0125 0.08 0.0025 0.991752
0.0175 0.08 0.0025 0.99176
0.0225 0.08 0.0025 0.988286
0.0275 0.08 0.0025 0.979872
0.0325 0.08 0.0025 0.967857
0.0375 0.08 0.0025 0.954415
0.0425 0.08 0.0025 0.943186
0.0475 0.08 0.0025 0.940016
0.0525 0.08 0.0025 0.943357
0.0575 0.08 0.0025 0.952072
0.0625 0.08 0.0025 0.96415
0.0675 0.08 0.0025 0.976083
0.0725 0.08 0.0025 0.985013
0.0775 0.08 0.0025 0.989671
0.0825 0.08 0.0025 0.990778
0.0875 0.08 0.0025 0.989697
0.0925 0.08 0.0025 0.986826
0.0975 0.08 0.0025 0.986043
0.0025 0.08 0.0075 0.98659
0.0075 0.08 0.0075 0.984759
0.0125 0.08 0.0075 0.987384
0.0175 0.08 0.0075 0.987782
0.0225 0.08 0.0075 0.983757
0.0275 0.08 0.0075 0.974762
0.0325 0.08 0.0075 0.961583
0.0375 0.08 0.0075 0.946998
0.0425 0.08 0.0075 0.934426
0.0475 0.08 0.0075 0.93028
0.0525 0.08 0.0075 0.933336
0.0575 0.08 0.0075 0.943352
0.0625 0.08 0.0075 0.957086
0.0675 0.08 0.0075 0.970823
0.0725 0.08 0.0075 0.980911
0.0775 0.08 0.0075 0.985906
0.0825 0.08 0.0075 0.985967
0.0875 0.08 0.0075 0.982377
0.0925 0.08 0.0075 0.978052
0.0975 0.08 0.0075 0.982557
0.0025 0.08 0.0125 0.985619
0.0075 0.08 0.0125 0.982669
0.0125 0.08 0.0125 0.985656
0.0175 0.08 0.0125 0.986691
0.0225 0.08 0.0125 0.983155
0.0275 0.08 0.0125 0.974846
0.0325 0.08 0.0125 0.961873
0.0375 0.08 0.0125 0.947367
0.0425 0.08 0.0125 0.934558
0.0475 0.08 0.0125 0.930407
0.0525 0.08 0.0125 0.933839
0.0575 0.08 0.0125 0.944153
0.0625 0.08 0.0125 0.958474
0.0675 0.08 0.0125 0.972325
0.0725 0.08 0.0125 0.982052
0.0775 0.08 0.0125 0.986333
0.0825 0.08 0.0125 0.985394
0.0875 0.08 0.0125 0.981382
0.0925 0.08 0.0125 0.976743
0.0975 0.08 0.0125 0.982515
0.0025 0.08 0.0175 0.987332
0.0075 0.08 0.0175 0.987815
0.0125 0.08 0.0175 0.989347
0.0175 0.08 0.0175 0.989609
0.0225 0.08 0.0175 0.986717
0.0275 0.08 0.0175 0.97862
0.0325 0.08 0.0175 0.96629
0.0375 0.08 0.0175 0.953662
0.0425 0.08 0.0175 0.94296
0.0475 0.08 0.0175 0.940372
0.0525 0.08 0.0175 0.943514
0.0575 0.08 0.0175 0.951573
0.0625 0.08 0.0175 0.964789
0.0675 0.08 0.0175 0.977868
0.0725 0.08 0.0175 0.986516
0.0775 0.08 0.0175 0.989796
0.0825 0.08 0.0175 0.989546
0.0875 0.08 0.0175 0.987774
0.0925 0.08 0.0175 0.986089
0.0975 0.08 0.0175 0.985252
