# alphaMean.air  FACE_DATA 80
#  x  y  z  alphaMean.air
0.0025 0.63 0.0025 0.0449051
0.0075 0.63 0.0025 0.0435298
0.0125 0.63 0.0025 0.0437857
0.0175 0.63 0.0025 0.0448165
0.0225 0.63 0.0025 0.0448542
0.0275 0.63 0.0025 0.0454466
0.0325 0.63 0.0025 0.0458171
0.0375 0.63 0.0025 0.0461086
0.0425 0.63 0.0025 0.046411
0.0475 0.63 0.0025 0.0464642
0.0525 0.63 0.0025 0.046437
0.0575 0.63 0.0025 0.0463798
0.0625 0.63 0.0025 0.0462161
0.0675 0.63 0.0025 0.0459751
0.0725 0.63 0.0025 0.0457343
0.0775 0.63 0.0025 0.0448774
0.0825 0.63 0.0025 0.0448725
0.0875 0.63 0.0025 0.0440602
0.0925 0.63 0.0025 0.0436574
0.0975 0.63 0.0025 0.0453231
0.0025 0.63 0.0075 0.0423503
0.0075 0.63 0.0075 0.0522063
0.0125 0.63 0.0075 0.0479621
0.0175 0.63 0.0075 0.0468306
0.0225 0.63 0.0075 0.0472054
0.0275 0.63 0.0075 0.0464993
0.0325 0.63 0.0075 0.0461473
0.0375 0.63 0.0075 0.0457751
0.0425 0.63 0.0075 0.045478
0.0475 0.63 0.0075 0.0454852
0.0525 0.63 0.0075 0.045582
0.0575 0.63 0.0075 0.0457329
0.0625 0.63 0.0075 0.0459753
0.0675 0.63 0.0075 0.0462338
0.0725 0.63 0.0075 0.0464927
0.0775 0.63 0.0075 0.0476552
0.0825 0.63 0.0075 0.0472222
0.0875 0.63 0.0075 0.0477332
0.0925 0.63 0.0075 0.0531574
0.0975 0.63 0.0075 0.0423193
0.0025 0.63 0.0125 0.0423145
0.0075 0.63 0.0125 0.0523283
0.0125 0.63 0.0125 0.0481209
0.0175 0.63 0.0125 0.0469169
0.0225 0.63 0.0125 0.0472915
0.0275 0.63 0.0125 0.0465676
0.0325 0.63 0.0125 0.0461386
0.0375 0.63 0.0125 0.0456936
0.0425 0.63 0.0125 0.045351
0.0475 0.63 0.0125 0.0453574
0.0525 0.63 0.0125 0.0454679
0.0575 0.63 0.0125 0.0455829
0.0625 0.63 0.0125 0.0458117
0.0675 0.63 0.0125 0.0460976
0.0725 0.63 0.0125 0.0463492
0.0775 0.63 0.0125 0.0474298
0.0825 0.63 0.0125 0.0469551
0.0875 0.63 0.0125 0.0474442
0.0925 0.63 0.0125 0.0528618
0.0975 0.63 0.0125 0.0421018
0.0025 0.63 0.0175 0.0449189
0.0075 0.63 0.0175 0.0433158
0.0125 0.63 0.0175 0.0436988
0.0175 0.63 0.0175 0.0447332
0.0225 0.63 0.0175 0.0448576
0.0275 0.63 0.0175 0.0454324
0.0325 0.63 0.0175 0.0457703
0.0375 0.63 0.0175 0.0460669
0.0425 0.63 0.0175 0.0463339
0.0475 0.63 0.0175 0.0464359
0.0525 0.63 0.0175 0.0464807
0.0575 0.63 0.0175 0.0464285
0.0625 0.63 0.0175 0.0462986
0.0675 0.63 0.0175 0.0460456
0.0725 0.63 0.0175 0.0457246
0.0775 0.63 0.0175 0.0448309
0.0825 0.63 0.0175 0.044773
0.0875 0.63 0.0175 0.0438843
0.0925 0.63 0.0175 0.0436407
0.0975 0.63 0.0175 0.0452506
