# alphaMean.water  FACE_DATA 80
#  x  y  z  alphaMean.water
0.0025 0.63 0.0025 0.955095
0.0075 0.63 0.0025 0.95647
0.0125 0.63 0.0025 0.956214
0.0175 0.63 0.0025 0.955184
0.0225 0.63 0.0025 0.955146
0.0275 0.63 0.0025 0.954553
0.0325 0.63 0.0025 0.954183
0.0375 0.63 0.0025 0.953891
0.0425 0.63 0.0025 0.953589
0.0475 0.63 0.0025 0.953536
0.0525 0.63 0.0025 0.953563
0.0575 0.63 0.0025 0.95362
0.0625 0.63 0.0025 0.953784
0.0675 0.63 0.0025 0.954025
0.0725 0.63 0.0025 0.954266
0.0775 0.63 0.0025 0.955123
0.0825 0.63 0.0025 0.955127
0.0875 0.63 0.0025 0.95594
0.0925 0.63 0.0025 0.956343
0.0975 0.63 0.0025 0.954677
0.0025 0.63 0.0075 0.95765
0.0075 0.63 0.0075 0.947794
0.0125 0.63 0.0075 0.952038
0.0175 0.63 0.0075 0.953169
0.0225 0.63 0.0075 0.952795
0.0275 0.63 0.0075 0.953501
0.0325 0.63 0.0075 0.953853
0.0375 0.63 0.0075 0.954225
0.0425 0.63 0.0075 0.954522
0.0475 0.63 0.0075 0.954515
0.0525 0.63 0.0075 0.954418
0.0575 0.63 0.0075 0.954267
0.0625 0.63 0.0075 0.954025
0.0675 0.63 0.0075 0.953766
0.0725 0.63 0.0075 0.953507
0.0775 0.63 0.0075 0.952345
0.0825 0.63 0.0075 0.952778
0.0875 0.63 0.0075 0.952267
0.0925 0.63 0.0075 0.946843
0.0975 0.63 0.0075 0.957681
0.0025 0.63 0.0125 0.957686
0.0075 0.63 0.0125 0.947672
0.0125 0.63 0.0125 0.951879
0.0175 0.63 0.0125 0.953083
0.0225 0.63 0.0125 0.952709
0.0275 0.63 0.0125 0.953432
0.0325 0.63 0.0125 0.953861
0.0375 0.63 0.0125 0.954306
0.0425 0.63 0.0125 0.954649
0.0475 0.63 0.0125 0.954643
0.0525 0.63 0.0125 0.954532
0.0575 0.63 0.0125 0.954417
0.0625 0.63 0.0125 0.954188
0.0675 0.63 0.0125 0.953902
0.0725 0.63 0.0125 0.953651
0.0775 0.63 0.0125 0.95257
0.0825 0.63 0.0125 0.953045
0.0875 0.63 0.0125 0.952556
0.0925 0.63 0.0125 0.947138
0.0975 0.63 0.0125 0.957898
0.0025 0.63 0.0175 0.955081
0.0075 0.63 0.0175 0.956684
0.0125 0.63 0.0175 0.956301
0.0175 0.63 0.0175 0.955267
0.0225 0.63 0.0175 0.955142
0.0275 0.63 0.0175 0.954568
0.0325 0.63 0.0175 0.95423
0.0375 0.63 0.0175 0.953933
0.0425 0.63 0.0175 0.953666
0.0475 0.63 0.0175 0.953564
0.0525 0.63 0.0175 0.953519
0.0575 0.63 0.0175 0.953572
0.0625 0.63 0.0175 0.953701
0.0675 0.63 0.0175 0.953954
0.0725 0.63 0.0175 0.954275
0.0775 0.63 0.0175 0.955169
0.0825 0.63 0.0175 0.955227
0.0875 0.63 0.0175 0.956116
0.0925 0.63 0.0175 0.956359
0.0975 0.63 0.0175 0.954749
