# alphaMean.air  FACE_DATA 80
#  x  y  z  alphaMean.air
0.0025 0.08 0.0025 0.0111986
0.0075 0.08 0.0025 0.0101739
0.0125 0.08 0.0025 0.00824829
0.0175 0.08 0.0025 0.00823995
0.0225 0.08 0.0025 0.0117137
0.0275 0.08 0.0025 0.0201279
0.0325 0.08 0.0025 0.0321432
0.0375 0.08 0.0025 0.0455847
0.0425 0.08 0.0025 0.0568143
0.0475 0.08 0.0025 0.0599841
0.0525 0.08 0.0025 0.0566428
0.0575 0.08 0.0025 0.0479284
0.0625 0.08 0.0025 0.0358502
0.0675 0.08 0.0025 0.0239168
0.0725 0.08 0.0025 0.0149873
0.0775 0.08 0.0025 0.0103292
0.0825 0.08 0.0025 0.00922155
0.0875 0.08 0.0025 0.0103034
0.0925 0.08 0.0025 0.0131744
0.0975 0.08 0.0025 0.0139571
0.0025 0.08 0.0075 0.0134102
0.0075 0.08 0.0075 0.0152407
0.0125 0.08 0.0075 0.0126159
0.0175 0.08 0.0075 0.012218
0.0225 0.08 0.0075 0.0162433
0.0275 0.08 0.0075 0.0252379
0.0325 0.08 0.0075 0.0384168
0.0375 0.08 0.0075 0.0530015
0.0425 0.08 0.0075 0.065574
0.0475 0.08 0.0075 0.0697204
0.0525 0.08 0.0075 0.0666641
0.0575 0.08 0.0075 0.0566475
0.0625 0.08 0.0075 0.0429138
0.0675 0.08 0.0075 0.0291765
0.0725 0.08 0.0075 0.0190886
0.0775 0.08 0.0075 0.0140942
0.0825 0.08 0.0075 0.0140328
0.0875 0.08 0.0075 0.0176229
0.0925 0.08 0.0075 0.0219481
0.0975 0.08 0.0075 0.0174426
0.0025 0.08 0.0125 0.0143814
0.0075 0.08 0.0125 0.0173305
0.0125 0.08 0.0125 0.0143437
0.0175 0.08 0.0125 0.0133091
0.0225 0.08 0.0125 0.016845
0.0275 0.08 0.0125 0.0251536
0.0325 0.08 0.0125 0.0381275
0.0375 0.08 0.0125 0.0526326
0.0425 0.08 0.0125 0.0654416
0.0475 0.08 0.0125 0.0695933
0.0525 0.08 0.0125 0.0661612
0.0575 0.08 0.0125 0.0558467
0.0625 0.08 0.0125 0.0415257
0.0675 0.08 0.0125 0.0276748
0.0725 0.08 0.0125 0.017948
0.0775 0.08 0.0125 0.0136666
0.0825 0.08 0.0125 0.0146061
0.0875 0.08 0.0125 0.0186177
0.0925 0.08 0.0125 0.0232574
0.0975 0.08 0.0125 0.0174849
0.0025 0.08 0.0175 0.0126678
0.0075 0.08 0.0175 0.0121855
0.0125 0.08 0.0175 0.0106533
0.0175 0.08 0.0175 0.0103912
0.0225 0.08 0.0175 0.0132828
0.0275 0.08 0.0175 0.0213796
0.0325 0.08 0.0175 0.0337096
0.0375 0.08 0.0175 0.0463384
0.0425 0.08 0.0175 0.0570398
0.0475 0.08 0.0175 0.0596279
0.0525 0.08 0.0175 0.0564862
0.0575 0.08 0.0175 0.0484268
0.0625 0.08 0.0175 0.0352109
0.0675 0.08 0.0175 0.0221321
0.0725 0.08 0.0175 0.0134838
0.0775 0.08 0.0175 0.0102043
0.0825 0.08 0.0175 0.0104535
0.0875 0.08 0.0175 0.0122262
0.0925 0.08 0.0175 0.0139105
0.0975 0.08 0.0175 0.0147477
