# pMean  FACE_DATA 80
#  x  y  z  pMean
0.0025 0.08 0.0025 108544
0.0075 0.08 0.0025 108544
0.0125 0.08 0.0025 108543
0.0175 0.08 0.0025 108542
0.0225 0.08 0.0025 108541
0.0275 0.08 0.0025 108540
0.0325 0.08 0.0025 108539
0.0375 0.08 0.0025 108537
0.0425 0.08 0.0025 108536
0.0475 0.08 0.0025 108535
0.0525 0.08 0.0025 108535
0.0575 0.08 0.0025 108535
0.0625 0.08 0.0025 108536
0.0675 0.08 0.0025 108537
0.0725 0.08 0.0025 108539
0.0775 0.08 0.0025 108540
0.0825 0.08 0.0025 108541
0.0875 0.08 0.0025 108541
0.0925 0.08 0.0025 108542
0.0975 0.08 0.0025 108543
0.0025 0.08 0.0075 108544
0.0075 0.08 0.0075 108543
0.0125 0.08 0.0075 108542
0.0175 0.08 0.0075 108541
0.0225 0.08 0.0075 108541
0.0275 0.08 0.0075 108539
0.0325 0.08 0.0075 108538
0.0375 0.08 0.0075 108537
0.0425 0.08 0.0075 108535
0.0475 0.08 0.0075 108535
0.0525 0.08 0.0075 108535
0.0575 0.08 0.0075 108535
0.0625 0.08 0.0075 108536
0.0675 0.08 0.0075 108537
0.0725 0.08 0.0075 108538
0.0775 0.08 0.0075 108539
0.0825 0.08 0.0075 108540
0.0875 0.08 0.0075 108541
0.0925 0.08 0.0075 108542
0.0975 0.08 0.0075 108543
0.0025 0.08 0.0125 108544
0.0075 0.08 0.0125 108543
0.0125 0.08 0.0125 108542
0.0175 0.08 0.0125 108542
0.0225 0.08 0.0125 108541
0.0275 0.08 0.0125 108540
0.0325 0.08 0.0125 108538
0.0375 0.08 0.0125 108537
0.0425 0.08 0.0125 108536
0.0475 0.08 0.0125 108535
0.0525 0.08 0.0125 108535
0.0575 0.08 0.0125 108535
0.0625 0.08 0.0125 108536
0.0675 0.08 0.0125 108537
0.0725 0.08 0.0125 108538
0.0775 0.08 0.0125 108539
0.0825 0.08 0.0125 108540
0.0875 0.08 0.0125 108541
0.0925 0.08 0.0125 108542
0.0975 0.08 0.0125 108543
0.0025 0.08 0.0175 108544
0.0075 0.08 0.0175 108544
0.0125 0.08 0.0175 108543
0.0175 0.08 0.0175 108542
0.0225 0.08 0.0175 108541
0.0275 0.08 0.0175 108540
0.0325 0.08 0.0175 108539
0.0375 0.08 0.0175 108537
0.0425 0.08 0.0175 108536
0.0475 0.08 0.0175 108535
0.0525 0.08 0.0175 108535
0.0575 0.08 0.0175 108536
0.0625 0.08 0.0175 108537
0.0675 0.08 0.0175 108538
0.0725 0.08 0.0175 108539
0.0775 0.08 0.0175 108540
0.0825 0.08 0.0175 108540
0.0875 0.08 0.0175 108541
0.0925 0.08 0.0175 108542
0.0975 0.08 0.0175 108543
