# UMean.water  FACE_DATA 80
#  x  y  z  UMean.water_x  UMean.water_y  UMean.water_z  
0.0025 0.63 0.0025 -0.000221746 -0.0155882 -1.42794e-05
0.0075 0.63 0.0025 -0.000801327 -0.00883031 -7.70894e-05
0.0125 0.63 0.0025 -0.00127722 -0.00522543 -0.000109707
0.0175 0.63 0.0025 -0.00151415 -0.00144148 -6.50317e-05
0.0225 0.63 0.0025 -0.00171124 0.000778838 -6.62145e-05
0.0275 0.63 0.0025 -0.00179511 0.00357021 -6.99323e-05
0.0325 0.63 0.0025 -0.00184271 0.00569333 -5.50494e-05
0.0375 0.63 0.0025 -0.00173306 0.00716783 -2.19801e-05
0.0425 0.63 0.0025 -0.00164449 0.00807899 1.16811e-06
0.0475 0.63 0.0025 -0.0014553 0.00787136 4.11235e-05
0.0525 0.63 0.0025 -0.00129069 0.00684966 8.52219e-05
0.0575 0.63 0.0025 -0.00107712 0.00519575 0.000111718
0.0625 0.63 0.0025 -0.000938092 0.00284214 8.2381e-05
0.0675 0.63 0.0025 -0.000811082 0.000190655 2.44228e-05
0.0725 0.63 0.0025 -0.000701325 -0.00239464 -4.62983e-05
0.0775 0.63 0.0025 -0.000482333 -0.00597525 -0.000104933
0.0825 0.63 0.0025 -0.000295315 -0.00818109 -0.000137414
0.0875 0.63 0.0025 -0.000108566 -0.0115219 -0.000174959
0.0925 0.63 0.0025 4.73388e-05 -0.0136995 -9.33813e-05
0.0975 0.63 0.0025 6.32568e-05 -0.0200398 6.7194e-05
0.0025 0.63 0.0075 -0.00036797 -0.0150606 0.000132062
0.0075 0.63 0.0075 -0.000652348 0.0084919 0.000155363
0.0125 0.63 0.0075 -0.00100543 0.00764908 6.2285e-05
0.0175 0.63 0.0075 -0.00120709 0.00712675 -2.15666e-05
0.0225 0.63 0.0075 -0.00140443 0.00763681 -2.46303e-05
0.0275 0.63 0.0075 -0.00147539 0.00692439 -4.51982e-05
0.0325 0.63 0.0075 -0.001514 0.00583192 -5.03404e-05
0.0375 0.63 0.0075 -0.00145085 0.00408839 -3.09943e-05
0.0425 0.63 0.0075 -0.00138418 0.00245827 3.69088e-06
0.0475 0.63 0.0075 -0.00126921 0.00162173 6.6578e-05
0.0525 0.63 0.0075 -0.00117986 0.00120823 0.000108616
0.0575 0.63 0.0075 -0.0010536 0.000933911 0.000131955
0.0625 0.63 0.0075 -0.000948933 0.000762748 0.000116185
0.0675 0.63 0.0075 -0.00081431 0.000709452 0.000108057
0.0725 0.63 0.0075 -0.00072335 0.00108203 8.23443e-05
0.0775 0.63 0.0075 -0.000607037 0.00263571 4.18719e-05
0.0825 0.63 0.0075 -0.000524922 0.00211011 -2.72534e-06
0.0875 0.63 0.0075 -0.000378041 0.00290254 4.62655e-06
0.0925 0.63 0.0075 -0.00021228 0.00717305 4.85916e-05
0.0975 0.63 0.0075 8.69402e-05 -0.0196193 2.7805e-05
0.0025 0.63 0.0125 -0.000399608 -0.0153406 2.67461e-05
0.0075 0.63 0.0125 -0.000674643 0.00848399 -2.46446e-05
0.0125 0.63 0.0125 -0.00103283 0.00770511 2.43231e-05
0.0175 0.63 0.0125 -0.00124272 0.00716829 5.9874e-05
0.0225 0.63 0.0125 -0.00145371 0.0077618 2.43912e-05
0.0275 0.63 0.0125 -0.00152452 0.00705521 -2.89595e-05
0.0325 0.63 0.0125 -0.00154351 0.00584347 -7.74502e-05
0.0375 0.63 0.0125 -0.00146395 0.00398267 -0.00010887
0.0425 0.63 0.0125 -0.00136338 0.00220072 -8.72201e-05
0.0475 0.63 0.0125 -0.00123493 0.00124009 -4.96102e-05
0.0525 0.63 0.0125 -0.00115103 0.000781895 -4.43457e-05
0.0575 0.63 0.0125 -0.00103351 0.000453494 -5.68269e-05
0.0625 0.63 0.0125 -0.000934583 0.000289419 -6.9971e-05
0.0675 0.63 0.0125 -0.000799226 0.000235056 -6.37948e-05
0.0725 0.63 0.0125 -0.000720929 0.000545665 -6.01733e-05
0.0775 0.63 0.0125 -0.000629845 0.0020481 -4.19034e-05
0.0825 0.63 0.0125 -0.000550495 0.00146443 -2.38945e-05
0.0875 0.63 0.0125 -0.000389215 0.00232212 -8.10428e-05
0.0925 0.63 0.0125 -0.00022481 0.00670454 -0.000177664
0.0975 0.63 0.0125 6.85101e-05 -0.019995 -0.000158078
0.0025 0.63 0.0175 -0.000250826 -0.0164615 8.42761e-05
0.0075 0.63 0.0175 -0.000813606 -0.0103367 0.000147293
0.0125 0.63 0.0175 -0.00128242 -0.00653343 0.000146233
0.0175 0.63 0.0175 -0.0015349 -0.00240265 6.33283e-05
0.0225 0.63 0.0175 -0.00176325 0.00049278 3.84281e-05
0.0275 0.63 0.0175 -0.00184085 0.00363281 -7.8864e-06
0.0325 0.63 0.0175 -0.00186379 0.00596617 -4.82261e-05
0.0375 0.63 0.0175 -0.00177884 0.00766175 -9.36063e-05
0.0425 0.63 0.0175 -0.00167402 0.00849471 -8.00336e-05
0.0475 0.63 0.0175 -0.00145897 0.00822598 -5.10841e-05
0.0525 0.63 0.0175 -0.00130735 0.00712134 -6.18404e-05
0.0575 0.63 0.0175 -0.00110348 0.00537153 -8.23229e-05
0.0625 0.63 0.0175 -0.000951505 0.00305545 -7.85388e-05
0.0675 0.63 0.0175 -0.000814735 0.000298964 -2.78563e-05
0.0725 0.63 0.0175 -0.000736839 -0.00245572 5.16958e-05
0.0775 0.63 0.0175 -0.000532495 -0.00587862 0.000113688
0.0825 0.63 0.0175 -0.000324203 -0.00795184 0.000137144
0.0875 0.63 0.0175 -9.69522e-05 -0.0109135 0.000150691
0.0925 0.63 0.0175 3.88173e-05 -0.0126868 2.42536e-05
0.0975 0.63 0.0175 3.33152e-05 -0.0192702 -0.000145271
