# UMean.air  FACE_DATA 80
#  x  y  z  UMean.air_x  UMean.air_y  UMean.air_z  
0.0025 0.63 0.0025 -0.000590707 0.207985 2.57104e-05
0.0075 0.63 0.0025 -0.00178197 0.214739 -8.41724e-05
0.0125 0.63 0.0025 -0.00235273 0.218379 -0.000137947
0.0175 0.63 0.0025 -0.00243979 0.222181 -0.000160773
0.0225 0.63 0.0025 -0.00257535 0.224414 -9.32689e-05
0.0275 0.63 0.0025 -0.00260364 0.227203 -9.97766e-05
0.0325 0.63 0.0025 -0.00255554 0.22934 -8.76552e-05
0.0375 0.63 0.0025 -0.00225705 0.23083 -5.80715e-05
0.0425 0.63 0.0025 -0.00188851 0.231749 -9.52948e-05
0.0475 0.63 0.0025 -0.00137182 0.231564 2.43956e-05
0.0525 0.63 0.0025 -0.000976135 0.230557 0.000152558
0.0575 0.63 0.0025 -0.00059758 0.228906 0.000224305
0.0625 0.63 0.0025 -0.00033756 0.226543 0.000151056
0.0675 0.63 0.0025 -0.000146596 0.223886 4.96005e-05
0.0725 0.63 0.0025 -7.9758e-06 0.221303 -5.28638e-05
0.0775 0.63 0.0025 0.00024336 0.217752 -4.82952e-05
0.0825 0.63 0.0025 0.000451471 0.215538 -0.000225145
0.0875 0.63 0.0025 0.000761285 0.2122 -0.000273518
0.0925 0.63 0.0025 0.000777676 0.21 0.000111316
0.0975 0.63 0.0025 0.000292375 0.203619 0.000198086
0.0025 0.63 0.0075 -0.0004648 0.20855 0.000199051
0.0075 0.63 0.0075 -0.000878218 0.231839 0.000157979
0.0125 0.63 0.0075 -0.00108239 0.231164 4.81313e-05
0.0175 0.63 0.0075 -0.00111259 0.230711 -0.000119748
0.0225 0.63 0.0075 -0.00126365 0.23122 -3.34136e-05
0.0275 0.63 0.0075 -0.00121371 0.230549 -8.82318e-05
0.0325 0.63 0.0075 -0.00115514 0.229481 -0.000106356
0.0375 0.63 0.0075 -0.00107312 0.227756 -8.31268e-05
0.0425 0.63 0.0075 -0.00110705 0.226145 -0.000115849
0.0475 0.63 0.0075 -0.00112284 0.225312 7.40227e-05
0.0525 0.63 0.0075 -0.00112944 0.224891 0.000208237
0.0575 0.63 0.0075 -0.00105813 0.224608 0.000280065
0.0625 0.63 0.0075 -0.000999055 0.224431 0.000195452
0.0675 0.63 0.0075 -0.000922398 0.224372 0.000139632
0.0725 0.63 0.0075 -0.000902524 0.224742 9.34079e-05
0.0775 0.63 0.0075 -0.000762391 0.226259 9.46502e-05
0.0825 0.63 0.0075 -0.000722976 0.225758 -0.000109402
0.0875 0.63 0.0075 -0.000650683 0.22654 -7.5619e-05
0.0925 0.63 0.0075 -0.000448812 0.230616 0.000246072
0.0975 0.63 0.0075 -1.58472e-05 0.204101 0.000149275
0.0025 0.63 0.0125 -0.000497519 0.208248 5.54606e-05
0.0075 0.63 0.0125 -0.000904601 0.231814 -0.000139946
0.0125 0.63 0.0125 -0.00113538 0.231204 -3.17839e-05
0.0175 0.63 0.0125 -0.00117622 0.230741 0.000112795
0.0225 0.63 0.0125 -0.00132582 0.231335 4.00196e-05
0.0275 0.63 0.0125 -0.00126171 0.230678 -2.92289e-05
0.0325 0.63 0.0125 -0.00116497 0.2295 -8.90511e-05
0.0375 0.63 0.0125 -0.00105111 0.227662 -0.000109327
0.0425 0.63 0.0125 -0.00105137 0.225899 -2.78487e-05
0.0475 0.63 0.0125 -0.00106562 0.224933 1.61444e-05
0.0525 0.63 0.0125 -0.00107843 0.224461 -5.12806e-05
0.0575 0.63 0.0125 -0.0010138 0.224124 -9.91414e-05
0.0625 0.63 0.0125 -0.000957802 0.223957 -0.000125399
0.0675 0.63 0.0125 -0.000873368 0.223896 -8.86097e-05
0.0725 0.63 0.0125 -0.000870131 0.224205 -9.11834e-05
0.0775 0.63 0.0125 -0.000781177 0.225677 -0.000191483
0.0825 0.63 0.0125 -0.000759906 0.225129 -3.36666e-06
0.0875 0.63 0.0125 -0.000676404 0.225982 -3.10339e-06
0.0925 0.63 0.0125 -0.00044365 0.230168 -0.000414574
0.0975 0.63 0.0125 -1.6456e-06 0.203742 -0.000325049
0.0025 0.63 0.0175 -0.000589042 0.207073 7.9424e-05
0.0075 0.63 0.0175 -0.00177005 0.213216 5.42219e-05
0.0125 0.63 0.0175 -0.00243297 0.217052 9.78099e-05
0.0175 0.63 0.0175 -0.00261644 0.221207 0.000105119
0.0225 0.63 0.0175 -0.00277839 0.224126 2.7891e-05
0.0275 0.63 0.0175 -0.0027385 0.227287 -4.30807e-06
0.0325 0.63 0.0175 -0.00261293 0.229644 -4.57015e-05
0.0375 0.63 0.0175 -0.00232462 0.23136 -8.52402e-05
0.0425 0.63 0.0175 -0.00191805 0.2322 -3.84164e-06
0.0475 0.63 0.0175 -0.00135942 0.231924 -7.33605e-06
0.0525 0.63 0.0175 -0.000976281 0.230814 -9.37949e-05
0.0575 0.63 0.0175 -0.000614669 0.229067 -0.000149594
0.0625 0.63 0.0175 -0.000329287 0.226751 -0.000133437
0.0675 0.63 0.0175 -9.67222e-05 0.223986 -5.55874e-05
0.0725 0.63 0.0175 -1.27448e-05 0.221234 2.45641e-06
0.0775 0.63 0.0175 0.000122562 0.217851 -3.43232e-05
0.0825 0.63 0.0175 0.000272904 0.215786 0.000167248
0.0875 0.63 0.0175 0.000619713 0.212831 0.000230293
0.0925 0.63 0.0175 0.000679733 0.211039 -0.000171681
0.0975 0.63 0.0175 0.000240656 0.204423 -0.000303804
