# UMean.air  FACE_DATA 80
#  x  y  z  UMean.air_x  UMean.air_y  UMean.air_z  
0.0025 0.08 0.0025 0.00415214 0.0201216 0.00397604
0.0075 0.08 0.0025 0.0036614 0.0640687 0.00597633
0.0125 0.08 0.0025 0.000139515 0.112523 0.00289686
0.0175 0.08 0.0025 -0.00146082 0.16123 0.000669884
0.0225 0.08 0.0025 -0.00160601 0.214129 -0.001705
0.0275 0.08 0.0025 -0.00195746 0.27215 -0.00457378
0.0325 0.08 0.0025 -0.00155567 0.330079 -0.00632003
0.0375 0.08 0.0025 0.000310351 0.381496 -0.00821187
0.0425 0.08 0.0025 0.00257003 0.415471 -0.0112382
0.0475 0.08 0.0025 0.00322364 0.428636 -0.0136701
0.0525 0.08 0.0025 0.00424836 0.425408 -0.0134414
0.0575 0.08 0.0025 0.00697727 0.401747 -0.011384
0.0625 0.08 0.0025 0.00866838 0.358308 -0.00792689
0.0675 0.08 0.0025 0.00757065 0.299418 -0.00378948
0.0725 0.08 0.0025 0.00424909 0.2346 -0.00086738
0.0775 0.08 0.0025 0.00304251 0.174673 0.0016847
0.0825 0.08 0.0025 0.00135739 0.117147 0.00301246
0.0875 0.08 0.0025 -0.00243713 0.0689618 0.00263932
0.0925 0.08 0.0025 -0.00319348 0.0229271 0.00431786
0.0975 0.08 0.0025 -0.00322062 -0.0151243 0.00280365
0.0025 0.08 0.0075 0.00352997 0.0320854 0.00783731
0.0075 0.08 0.0075 0.0037893 0.0730286 0.00982675
0.0125 0.08 0.0075 -0.00246956 0.119407 0.00562824
0.0175 0.08 0.0075 -0.00615229 0.169078 0.000890964
0.0225 0.08 0.0075 -0.00851144 0.226017 -0.00309302
0.0275 0.08 0.0075 -0.0096556 0.292318 -0.00612651
0.0325 0.08 0.0075 -0.00889104 0.356415 -0.00791024
0.0375 0.08 0.0075 -0.00572391 0.411473 -0.0094952
0.0425 0.08 0.0075 -0.000715015 0.44989 -0.0122014
0.0475 0.08 0.0075 0.00338679 0.466644 -0.0144472
0.0525 0.08 0.0075 0.00813833 0.462636 -0.0138623
0.0575 0.08 0.0075 0.0134656 0.433042 -0.0108559
0.0625 0.08 0.0075 0.0163273 0.38044 -0.00624461
0.0675 0.08 0.0075 0.0152649 0.314783 -0.00157737
0.0725 0.08 0.0075 0.0115221 0.247781 0.000887515
0.0775 0.08 0.0075 0.0078245 0.186865 0.00333284
0.0825 0.08 0.0075 0.00393601 0.131393 0.00472143
0.0875 0.08 0.0075 0.000434079 0.0839667 0.00440878
0.0925 0.08 0.0075 -0.00407363 0.0420012 0.00570626
0.0975 0.08 0.0075 -0.00366146 0.00263933 0.00644887
0.0025 0.08 0.0125 0.00400728 0.0284207 0.00163976
0.0075 0.08 0.0125 0.00432561 0.0649823 -0.00186582
0.0125 0.08 0.0125 -4.60961e-06 0.109241 -0.00406441
0.0175 0.08 0.0125 -0.00316049 0.161543 -0.00549305
0.0225 0.08 0.0125 -0.00718355 0.222004 -0.0051754
0.0275 0.08 0.0125 -0.00925801 0.291695 -0.00308033
0.0325 0.08 0.0125 -0.007426 0.35875 0.000653449
0.0375 0.08 0.0125 -0.00465283 0.413652 0.00413844
0.0425 0.08 0.0125 -5.7414e-05 0.45274 0.00616153
0.0475 0.08 0.0125 0.00447433 0.469527 0.00655855
0.0525 0.08 0.0125 0.0101157 0.464071 0.00598035
0.0575 0.08 0.0125 0.0156779 0.432085 0.00613685
0.0625 0.08 0.0125 0.018208 0.37624 0.0057432
0.0675 0.08 0.0125 0.0162763 0.308913 0.00434665
0.0725 0.08 0.0125 0.0112623 0.243539 0.000701879
0.0775 0.08 0.0125 0.00647858 0.18194 -0.00140634
0.0825 0.08 0.0125 0.00169287 0.127735 -0.00405329
0.0875 0.08 0.0125 -0.00113681 0.0801246 -0.0062951
0.0925 0.08 0.0125 -0.00604469 0.0390618 -0.00487294
0.0975 0.08 0.0125 -0.00513777 0.00440816 0.00200735
0.0025 0.08 0.0175 0.00665773 0.00949783 0.00100477
0.0075 0.08 0.0175 0.00876416 0.0404918 -0.0022036
0.0125 0.08 0.0175 0.00796206 0.0857535 -0.00292548
0.0175 0.08 0.0175 0.00365574 0.142613 -0.00280894
0.0225 0.08 0.0175 0.00062731 0.206119 -0.00136373
0.0275 0.08 0.0175 -0.0017801 0.272776 0.00150143
0.0325 0.08 0.0175 0.000569616 0.337166 0.0039765
0.0375 0.08 0.0175 0.00350978 0.389979 0.0068681
0.0425 0.08 0.0175 0.00580546 0.425963 0.00939942
0.0475 0.08 0.0175 0.00692996 0.438128 0.0107008
0.0525 0.08 0.0175 0.00872873 0.431155 0.00984434
0.0575 0.08 0.0175 0.0102407 0.401197 0.00893451
0.0625 0.08 0.0175 0.0111406 0.349794 0.00721555
0.0675 0.08 0.0175 0.00976579 0.287439 0.00443424
0.0725 0.08 0.0175 0.00558772 0.225623 0.00111845
0.0775 0.08 0.0175 0.00134485 0.163888 -0.000871101
0.0825 0.08 0.0175 -0.00351753 0.108812 -0.00305495
0.0875 0.08 0.0175 -0.00880959 0.0570629 -0.00450363
0.0925 0.08 0.0175 -0.0125241 0.0124206 -0.00334366
0.0975 0.08 0.0175 -0.00935687 -0.0136551 0.00166268
