# UMean.water  FACE_DATA 80
#  x  y  z  UMean.water_x  UMean.water_y  UMean.water_z  
0.0025 0.08 0.0025 0.00358512 -0.210468 0.00131617
0.0075 0.08 0.0025 0.00673351 -0.165849 0.00185283
0.0125 0.08 0.0025 0.00832571 -0.116735 -0.000637166
0.0175 0.08 0.0025 0.00913025 -0.0681377 -0.00094931
0.0225 0.08 0.0025 0.0102525 -0.0148806 -0.00076975
0.0275 0.08 0.0025 0.0107112 0.0436313 -0.00117846
0.0325 0.08 0.0025 0.0103617 0.101909 -0.000730776
0.0375 0.08 0.0025 0.00930425 0.153654 -0.000668168
0.0425 0.08 0.0025 0.00693569 0.188497 -0.00186709
0.0475 0.08 0.0025 0.00290167 0.201995 -0.00317046
0.0525 0.08 0.0025 -0.000628069 0.198274 -0.00344964
0.0575 0.08 0.0025 -0.00224654 0.174004 -0.00294709
0.0625 0.08 0.0025 -0.0034757 0.130422 -0.00147917
0.0675 0.08 0.0025 -0.00578577 0.0712716 0.000875585
0.0725 0.08 0.0025 -0.0085556 0.00596551 0.00127669
0.0775 0.08 0.0025 -0.0085191 -0.0543955 0.00143653
0.0825 0.08 0.0025 -0.00831424 -0.112174 0.000441249
0.0875 0.08 0.0025 -0.00765625 -0.160048 -0.00126223
0.0925 0.08 0.0025 -0.00301304 -0.205228 0.000254648
0.0975 0.08 0.0025 -0.00164421 -0.243121 0.0012848
0.0025 0.08 0.0075 0.00272436 -0.198008 0.00549621
0.0075 0.08 0.0075 0.00842857 -0.156033 0.00572435
0.0125 0.08 0.0075 0.0105259 -0.108873 0.00211218
0.0175 0.08 0.0075 0.0104736 -0.0593514 -0.000352487
0.0225 0.08 0.0075 0.0106291 -0.00235895 -0.00201
0.0275 0.08 0.0075 0.01116 0.063904 -0.00210309
0.0325 0.08 0.0075 0.0109969 0.128053 -0.00115429
0.0375 0.08 0.0075 0.0100931 0.182979 -0.00100612
0.0425 0.08 0.0075 0.00822164 0.221538 -0.00201755
0.0475 0.08 0.0075 0.00399942 0.238281 -0.00334502
0.0525 0.08 0.0075 0.000227769 0.234069 -0.0035461
0.0575 0.08 0.0075 -0.00215456 0.204354 -0.00239143
0.0625 0.08 0.0075 -0.00426147 0.152163 -0.000295388
0.0675 0.08 0.0075 -0.00601707 0.0872072 0.00230223
0.0725 0.08 0.0075 -0.00763587 0.0204321 0.00239799
0.0775 0.08 0.0075 -0.00801608 -0.0405364 0.00265503
0.0825 0.08 0.0075 -0.00823248 -0.0963467 0.00258242
0.0875 0.08 0.0075 -0.00792526 -0.143676 0.00028614
0.0925 0.08 0.0075 -0.00533971 -0.186078 0.00108585
0.0975 0.08 0.0075 -0.00154764 -0.225921 0.00480251
0.0025 0.08 0.0125 0.00349774 -0.201095 0.00318315
0.0075 0.08 0.0125 0.0090621 -0.16342 0.000960859
0.0125 0.08 0.0125 0.0128494 -0.119087 -0.00130873
0.0175 0.08 0.0125 0.0138416 -0.067246 -0.00329392
0.0225 0.08 0.0125 0.0132227 -0.00696778 -0.00506229
0.0275 0.08 0.0125 0.0122866 0.0622559 -0.0054797
0.0325 0.08 0.0125 0.0125183 0.130036 -0.00359217
0.0375 0.08 0.0125 0.011172 0.185048 -0.00165534
0.0425 0.08 0.0125 0.00882017 0.223945 -0.000999619
0.0475 0.08 0.0125 0.00476322 0.240419 -0.00163603
0.0525 0.08 0.0125 0.00133953 0.234895 -0.00252338
0.0575 0.08 0.0125 -0.0011523 0.20307 -0.00223006
0.0625 0.08 0.0125 -0.00365841 0.147864 -0.0016383
0.0675 0.08 0.0125 -0.00553971 0.0814411 -0.00101974
0.0725 0.08 0.0125 -0.0076424 0.0162832 -0.00219977
0.0775 0.08 0.0125 -0.0088128 -0.0454552 -0.00189867
0.0825 0.08 0.0125 -0.00978904 -0.099777 -0.00174233
0.0875 0.08 0.0125 -0.00927893 -0.147185 -0.00312201
0.0925 0.08 0.0125 -0.0073996 -0.188996 -0.00224931
0.0975 0.08 0.0125 -0.00312253 -0.224896 0.00376965
0.0025 0.08 0.0175 0.00637524 -0.220309 0.00295817
0.0075 0.08 0.0175 0.0108641 -0.189028 0.000930921
0.0125 0.08 0.0175 0.0157759 -0.143791 9.32276e-05
0.0175 0.08 0.0175 0.0159586 -0.087232 -0.000746884
0.0225 0.08 0.0175 0.0156167 -0.0237295 -0.00155583
0.0275 0.08 0.0175 0.0135505 0.0428242 -0.00143586
0.0325 0.08 0.0175 0.0133776 0.107965 -0.00127353
0.0375 0.08 0.0175 0.0126665 0.161614 -0.000122291
0.0425 0.08 0.0175 0.0103428 0.198248 0.000746388
0.0475 0.08 0.0175 0.00594607 0.210212 0.000959239
0.0525 0.08 0.0175 0.00229701 0.202665 0.000284215
0.0575 0.08 0.0175 -0.000695398 0.172932 0.000165393
0.0625 0.08 0.0175 -0.00278465 0.121463 0.000233666
0.0675 0.08 0.0175 -0.0045343 0.0595118 -8.36685e-05
0.0725 0.08 0.0175 -0.00716115 -0.00264608 -0.000897222
0.0775 0.08 0.0175 -0.00978684 -0.0643682 -0.000549871
0.0825 0.08 0.0175 -0.0119355 -0.11939 -0.000399503
0.0875 0.08 0.0175 -0.0131894 -0.171719 -0.000997339
0.0925 0.08 0.0175 -0.011515 -0.216711 -0.000272771
0.0975 0.08 0.0175 -0.00730363 -0.242938 0.00387925
