# alphaMean.air  FACE_DATA 80
#  x  y  z  alphaMean.air
0.0025 0.63 0.0025 0.0428593
0.0075 0.63 0.0025 0.0421007
0.0125 0.63 0.0025 0.0421691
0.0175 0.63 0.0025 0.0434179
0.0225 0.63 0.0025 0.0441068
0.0275 0.63 0.0025 0.0447723
0.0325 0.63 0.0025 0.0453038
0.0375 0.63 0.0025 0.0455857
0.0425 0.63 0.0025 0.0456343
0.0475 0.63 0.0025 0.0456124
0.0525 0.63 0.0025 0.0455088
0.0575 0.63 0.0025 0.0453195
0.0625 0.63 0.0025 0.0449785
0.0675 0.63 0.0025 0.0444161
0.0725 0.63 0.0025 0.0438251
0.0775 0.63 0.0025 0.0428727
0.0825 0.63 0.0025 0.0423979
0.0875 0.63 0.0025 0.0408125
0.0925 0.63 0.0025 0.0406028
0.0975 0.63 0.0025 0.0418315
0.0025 0.63 0.0075 0.0397603
0.0075 0.63 0.0075 0.0525471
0.0125 0.63 0.0075 0.0465217
0.0175 0.63 0.0075 0.0446074
0.0225 0.63 0.0075 0.0450722
0.0275 0.63 0.0075 0.0440624
0.0325 0.63 0.0075 0.0434619
0.0375 0.63 0.0075 0.0430314
0.0425 0.63 0.0075 0.0427621
0.0475 0.63 0.0075 0.0426578
0.0525 0.63 0.0075 0.0427429
0.0575 0.63 0.0075 0.0429612
0.0625 0.63 0.0075 0.0434183
0.0675 0.63 0.0075 0.0438614
0.0725 0.63 0.0075 0.0443652
0.0775 0.63 0.0075 0.0457519
0.0825 0.63 0.0075 0.0445357
0.0875 0.63 0.0075 0.0465951
0.0925 0.63 0.0075 0.0549462
0.0975 0.63 0.0075 0.038164
0.0025 0.63 0.0125 0.0399466
0.0075 0.63 0.0125 0.0526315
0.0125 0.63 0.0125 0.0466366
0.0175 0.63 0.0125 0.0444822
0.0225 0.63 0.0125 0.0450264
0.0275 0.63 0.0125 0.0439184
0.0325 0.63 0.0125 0.0432349
0.0375 0.63 0.0125 0.0427926
0.0425 0.63 0.0125 0.0425641
0.0475 0.63 0.0125 0.0424622
0.0525 0.63 0.0125 0.0425109
0.0575 0.63 0.0125 0.0426981
0.0625 0.63 0.0125 0.0431694
0.0675 0.63 0.0125 0.0438755
0.0725 0.63 0.0125 0.0446968
0.0775 0.63 0.0125 0.0461438
0.0825 0.63 0.0125 0.0451592
0.0875 0.63 0.0125 0.0473683
0.0925 0.63 0.0125 0.0550553
0.0975 0.63 0.0125 0.0376675
0.0025 0.63 0.0175 0.0430141
0.0075 0.63 0.0175 0.0423905
0.0125 0.63 0.0175 0.0423179
0.0175 0.63 0.0175 0.0435329
0.0225 0.63 0.0175 0.0442969
0.0275 0.63 0.0175 0.0448445
0.0325 0.63 0.0175 0.0452502
0.0375 0.63 0.0175 0.0454923
0.0425 0.63 0.0175 0.0455606
0.0475 0.63 0.0175 0.0456547
0.0525 0.63 0.0175 0.0455809
0.0575 0.63 0.0175 0.0453578
0.0625 0.63 0.0175 0.0449902
0.0675 0.63 0.0175 0.0445145
0.0725 0.63 0.0175 0.0439368
0.0775 0.63 0.0175 0.0429078
0.0825 0.63 0.0175 0.0423453
0.0875 0.63 0.0175 0.0406107
0.0925 0.63 0.0175 0.040073
0.0975 0.63 0.0175 0.0419994
