# alphaMean.water  FACE_DATA 80
#  x  y  z  alphaMean.water
0.0025 0.63 0.0025 0.957141
0.0075 0.63 0.0025 0.957899
0.0125 0.63 0.0025 0.957831
0.0175 0.63 0.0025 0.956582
0.0225 0.63 0.0025 0.955893
0.0275 0.63 0.0025 0.955228
0.0325 0.63 0.0025 0.954696
0.0375 0.63 0.0025 0.954414
0.0425 0.63 0.0025 0.954366
0.0475 0.63 0.0025 0.954388
0.0525 0.63 0.0025 0.954491
0.0575 0.63 0.0025 0.95468
0.0625 0.63 0.0025 0.955021
0.0675 0.63 0.0025 0.955584
0.0725 0.63 0.0025 0.956175
0.0775 0.63 0.0025 0.957127
0.0825 0.63 0.0025 0.957602
0.0875 0.63 0.0025 0.959187
0.0925 0.63 0.0025 0.959397
0.0975 0.63 0.0025 0.958168
0.0025 0.63 0.0075 0.96024
0.0075 0.63 0.0075 0.947453
0.0125 0.63 0.0075 0.953478
0.0175 0.63 0.0075 0.955393
0.0225 0.63 0.0075 0.954928
0.0275 0.63 0.0075 0.955938
0.0325 0.63 0.0075 0.956538
0.0375 0.63 0.0075 0.956969
0.0425 0.63 0.0075 0.957238
0.0475 0.63 0.0075 0.957342
0.0525 0.63 0.0075 0.957257
0.0575 0.63 0.0075 0.957039
0.0625 0.63 0.0075 0.956582
0.0675 0.63 0.0075 0.956139
0.0725 0.63 0.0075 0.955635
0.0775 0.63 0.0075 0.954248
0.0825 0.63 0.0075 0.955464
0.0875 0.63 0.0075 0.953405
0.0925 0.63 0.0075 0.945054
0.0975 0.63 0.0075 0.961836
0.0025 0.63 0.0125 0.960053
0.0075 0.63 0.0125 0.947368
0.0125 0.63 0.0125 0.953363
0.0175 0.63 0.0125 0.955518
0.0225 0.63 0.0125 0.954974
0.0275 0.63 0.0125 0.956082
0.0325 0.63 0.0125 0.956765
0.0375 0.63 0.0125 0.957207
0.0425 0.63 0.0125 0.957436
0.0475 0.63 0.0125 0.957538
0.0525 0.63 0.0125 0.957489
0.0575 0.63 0.0125 0.957302
0.0625 0.63 0.0125 0.956831
0.0675 0.63 0.0125 0.956125
0.0725 0.63 0.0125 0.955303
0.0775 0.63 0.0125 0.953856
0.0825 0.63 0.0125 0.954841
0.0875 0.63 0.0125 0.952632
0.0925 0.63 0.0125 0.944945
0.0975 0.63 0.0125 0.962333
0.0025 0.63 0.0175 0.956986
0.0075 0.63 0.0175 0.95761
0.0125 0.63 0.0175 0.957682
0.0175 0.63 0.0175 0.956467
0.0225 0.63 0.0175 0.955703
0.0275 0.63 0.0175 0.955155
0.0325 0.63 0.0175 0.95475
0.0375 0.63 0.0175 0.954508
0.0425 0.63 0.0175 0.954439
0.0475 0.63 0.0175 0.954345
0.0525 0.63 0.0175 0.954419
0.0575 0.63 0.0175 0.954642
0.0625 0.63 0.0175 0.95501
0.0675 0.63 0.0175 0.955485
0.0725 0.63 0.0175 0.956063
0.0775 0.63 0.0175 0.957092
0.0825 0.63 0.0175 0.957655
0.0875 0.63 0.0175 0.959389
0.0925 0.63 0.0175 0.959927
0.0975 0.63 0.0175 0.958001
