# alphaMean.air  FACE_DATA 80
#  x  y  z  alphaMean.air
0.0025 0.08 0.0025 0.00867655
0.0075 0.08 0.0025 0.00571929
0.0125 0.08 0.0025 0.00389422
0.0175 0.08 0.0025 0.00505988
0.0225 0.08 0.0025 0.0120548
0.0275 0.08 0.0025 0.0223584
0.0325 0.08 0.0025 0.0318445
0.0375 0.08 0.0025 0.0343356
0.0425 0.08 0.0025 0.0326848
0.0475 0.08 0.0025 0.0317375
0.0525 0.08 0.0025 0.0317144
0.0575 0.08 0.0025 0.0319887
0.0625 0.08 0.0025 0.0339849
0.0675 0.08 0.0025 0.0338396
0.0725 0.08 0.0025 0.0248438
0.0775 0.08 0.0025 0.0136122
0.0825 0.08 0.0025 0.00513549
0.0875 0.08 0.0025 0.00330541
0.0925 0.08 0.0025 0.00527968
0.0975 0.08 0.0025 0.00898197
0.0025 0.08 0.0075 0.00628469
0.0075 0.08 0.0075 0.00754968
0.0125 0.08 0.0075 0.00341029
0.0175 0.08 0.0075 0.00346502
0.0225 0.08 0.0075 0.0120993
0.0275 0.08 0.0075 0.0271005
0.0325 0.08 0.0075 0.0409339
0.0375 0.08 0.0075 0.0460067
0.0425 0.08 0.0075 0.0443784
0.0475 0.08 0.0075 0.0431311
0.0525 0.08 0.0075 0.0430228
0.0575 0.08 0.0075 0.0445559
0.0625 0.08 0.0075 0.0481768
0.0675 0.08 0.0075 0.046336
0.0725 0.08 0.0075 0.0332017
0.0775 0.08 0.0075 0.0166352
0.0825 0.08 0.0075 0.00536377
0.0875 0.08 0.0075 0.00394005
0.0925 0.08 0.0075 0.00757961
0.0975 0.08 0.0075 0.00699613
0.0025 0.08 0.0125 0.00746252
0.0075 0.08 0.0125 0.0100411
0.0125 0.08 0.0125 0.00442266
0.0175 0.08 0.0125 0.00466434
0.0225 0.08 0.0125 0.0145764
0.0275 0.08 0.0125 0.0289122
0.0325 0.08 0.0125 0.041299
0.0375 0.08 0.0125 0.0448993
0.0425 0.08 0.0125 0.0428398
0.0475 0.08 0.0125 0.0423472
0.0525 0.08 0.0125 0.0438186
0.0575 0.08 0.0125 0.0463696
0.0625 0.08 0.0125 0.0502864
0.0675 0.08 0.0125 0.0479529
0.0725 0.08 0.0125 0.0335112
0.0775 0.08 0.0125 0.0158588
0.0825 0.08 0.0125 0.00505472
0.0875 0.08 0.0125 0.00394413
0.0925 0.08 0.0125 0.00721498
0.0975 0.08 0.0125 0.00619934
0.0025 0.08 0.0175 0.00987353
0.0075 0.08 0.0175 0.00658332
0.0125 0.08 0.0175 0.00436691
0.0175 0.08 0.0175 0.00640099
0.0225 0.08 0.0175 0.0143441
0.0275 0.08 0.0175 0.0240244
0.0325 0.08 0.0175 0.0326485
0.0375 0.08 0.0175 0.0339375
0.0425 0.08 0.0175 0.0308662
0.0475 0.08 0.0175 0.0298894
0.0525 0.08 0.0175 0.0314439
0.0575 0.08 0.0175 0.0337055
0.0625 0.08 0.0175 0.0364882
0.0675 0.08 0.0175 0.0354309
0.0725 0.08 0.0175 0.0256814
0.0775 0.08 0.0175 0.0139452
0.0825 0.08 0.0175 0.00584896
0.0875 0.08 0.0175 0.004087
0.0925 0.08 0.0175 0.00573034
0.0975 0.08 0.0175 0.00842707
