# alphaMean.water  FACE_DATA 80
#  x  y  z  alphaMean.water
0.0025 0.08 0.0025 0.991323
0.0075 0.08 0.0025 0.994281
0.0125 0.08 0.0025 0.996106
0.0175 0.08 0.0025 0.99494
0.0225 0.08 0.0025 0.987945
0.0275 0.08 0.0025 0.977642
0.0325 0.08 0.0025 0.968155
0.0375 0.08 0.0025 0.965664
0.0425 0.08 0.0025 0.967315
0.0475 0.08 0.0025 0.968262
0.0525 0.08 0.0025 0.968286
0.0575 0.08 0.0025 0.968011
0.0625 0.08 0.0025 0.966015
0.0675 0.08 0.0025 0.96616
0.0725 0.08 0.0025 0.975156
0.0775 0.08 0.0025 0.986388
0.0825 0.08 0.0025 0.994865
0.0875 0.08 0.0025 0.996695
0.0925 0.08 0.0025 0.99472
0.0975 0.08 0.0025 0.991018
0.0025 0.08 0.0075 0.993715
0.0075 0.08 0.0075 0.99245
0.0125 0.08 0.0075 0.99659
0.0175 0.08 0.0075 0.996535
0.0225 0.08 0.0075 0.987901
0.0275 0.08 0.0075 0.9729
0.0325 0.08 0.0075 0.959066
0.0375 0.08 0.0075 0.953993
0.0425 0.08 0.0075 0.955622
0.0475 0.08 0.0075 0.956869
0.0525 0.08 0.0075 0.956977
0.0575 0.08 0.0075 0.955444
0.0625 0.08 0.0075 0.951823
0.0675 0.08 0.0075 0.953664
0.0725 0.08 0.0075 0.966798
0.0775 0.08 0.0075 0.983365
0.0825 0.08 0.0075 0.994636
0.0875 0.08 0.0075 0.99606
0.0925 0.08 0.0075 0.99242
0.0975 0.08 0.0075 0.993004
0.0025 0.08 0.0125 0.992537
0.0075 0.08 0.0125 0.989959
0.0125 0.08 0.0125 0.995577
0.0175 0.08 0.0125 0.995336
0.0225 0.08 0.0125 0.985424
0.0275 0.08 0.0125 0.971088
0.0325 0.08 0.0125 0.958701
0.0375 0.08 0.0125 0.955101
0.0425 0.08 0.0125 0.95716
0.0475 0.08 0.0125 0.957653
0.0525 0.08 0.0125 0.956181
0.0575 0.08 0.0125 0.95363
0.0625 0.08 0.0125 0.949714
0.0675 0.08 0.0125 0.952047
0.0725 0.08 0.0125 0.966489
0.0775 0.08 0.0125 0.984141
0.0825 0.08 0.0125 0.994945
0.0875 0.08 0.0125 0.996056
0.0925 0.08 0.0125 0.992785
0.0975 0.08 0.0125 0.993801
0.0025 0.08 0.0175 0.990126
0.0075 0.08 0.0175 0.993417
0.0125 0.08 0.0175 0.995633
0.0175 0.08 0.0175 0.993599
0.0225 0.08 0.0175 0.985656
0.0275 0.08 0.0175 0.975976
0.0325 0.08 0.0175 0.967352
0.0375 0.08 0.0175 0.966062
0.0425 0.08 0.0175 0.969134
0.0475 0.08 0.0175 0.970111
0.0525 0.08 0.0175 0.968556
0.0575 0.08 0.0175 0.966295
0.0625 0.08 0.0175 0.963512
0.0675 0.08 0.0175 0.964569
0.0725 0.08 0.0175 0.974319
0.0775 0.08 0.0175 0.986055
0.0825 0.08 0.0175 0.994151
0.0875 0.08 0.0175 0.995913
0.0925 0.08 0.0175 0.99427
0.0975 0.08 0.0175 0.991573
