# UMean.water  FACE_DATA 80
#  x  y  z  UMean.water_x  UMean.water_y  UMean.water_z  
0.0025 0.08 0.0025 0.00522934 -0.165033 -1.96473e-05
0.0075 0.08 0.0025 0.00836005 -0.133512 0.000787274
0.0125 0.08 0.0025 0.0107744 -0.0879502 0.000362053
0.0175 0.08 0.0025 0.00983486 -0.0426777 -8.80249e-05
0.0225 0.08 0.0025 0.00846233 -0.000946349 -0.000637177
0.0275 0.08 0.0025 0.0059506 0.0352582 -0.000736716
0.0325 0.08 0.0025 0.00333306 0.0589678 -0.00063852
0.0375 0.08 0.0025 0.00206427 0.0658672 0.000442284
0.0425 0.08 0.0025 0.000177939 0.067265 0.00151427
0.0475 0.08 0.0025 -0.00311535 0.0686078 0.0019503
0.0525 0.08 0.0025 -0.00790808 0.0690774 0.000715369
0.0575 0.08 0.0025 -0.0139861 0.066266 -0.00108105
0.0625 0.08 0.0025 -0.0193309 0.0644329 -0.00263651
0.0675 0.08 0.0025 -0.0205876 0.0639118 -0.00352007
0.0725 0.08 0.0025 -0.0176696 0.0513778 -0.00326344
0.0775 0.08 0.0025 -0.0144559 0.0210198 -0.00236445
0.0825 0.08 0.0025 -0.0119361 -0.0195104 -0.00138478
0.0875 0.08 0.0025 -0.0110317 -0.06242 -0.000667733
0.0925 0.08 0.0025 -0.00776128 -0.103588 0.00062906
0.0975 0.08 0.0025 -0.00365029 -0.137445 0.00292012
0.0025 0.08 0.0075 0.00497097 -0.150609 -0.000590991
0.0075 0.08 0.0075 0.0104323 -0.119043 0.00113507
0.0125 0.08 0.0075 0.0123646 -0.0801279 0.00120478
0.0175 0.08 0.0075 0.0108598 -0.0347194 0.00153679
0.0225 0.08 0.0075 0.00771866 0.0120528 0.00142465
0.0275 0.08 0.0075 0.00506146 0.0526195 0.00173556
0.0325 0.08 0.0075 0.00380166 0.0810495 0.00250491
0.0375 0.08 0.0075 0.00299101 0.0921164 0.00313639
0.0425 0.08 0.0075 0.000662439 0.0933891 0.00323764
0.0475 0.08 0.0075 -0.00353734 0.0934155 0.00359187
0.0525 0.08 0.0075 -0.00934785 0.0928532 0.00248091
0.0575 0.08 0.0075 -0.0151192 0.0919315 0.000273638
0.0625 0.08 0.0075 -0.0186004 0.0943641 -0.00189552
0.0675 0.08 0.0075 -0.0181725 0.0930744 -0.00303341
0.0725 0.08 0.0075 -0.0160178 0.0733018 -0.00275906
0.0775 0.08 0.0075 -0.0153091 0.035052 -0.000740049
0.0825 0.08 0.0075 -0.0158353 -0.0127773 0.00101348
0.0875 0.08 0.0075 -0.0154339 -0.0598722 0.00154712
0.0925 0.08 0.0075 -0.012498 -0.0966162 0.00211973
0.0975 0.08 0.0075 -0.00597713 -0.124851 0.00415553
0.0025 0.08 0.0125 0.00373403 -0.14685 -0.00550091
0.0075 0.08 0.0125 0.00931887 -0.111681 -0.0047576
0.0125 0.08 0.0125 0.0105298 -0.0711288 -0.00357682
0.0175 0.08 0.0125 0.0089067 -0.0247099 -0.00168988
0.0225 0.08 0.0125 0.00626747 0.0212158 0.000119064
0.0275 0.08 0.0125 0.0043783 0.0594716 0.00170657
0.0325 0.08 0.0125 0.00345272 0.0833642 0.00264807
0.0375 0.08 0.0125 0.0027017 0.0901273 0.00219681
0.0425 0.08 0.0125 -0.000305907 0.0910483 0.000479614
0.0475 0.08 0.0125 -0.00515822 0.0927675 -0.000569913
0.0525 0.08 0.0125 -0.0107541 0.0941293 -0.000869315
0.0575 0.08 0.0125 -0.0158191 0.0958688 -0.0010492
0.0625 0.08 0.0125 -0.0185136 0.0995834 -0.00129878
0.0675 0.08 0.0125 -0.0183897 0.097683 -0.00158714
0.0725 0.08 0.0125 -0.0168041 0.0756007 -0.00182518
0.0775 0.08 0.0125 -0.0165799 0.0336457 -0.00117693
0.0825 0.08 0.0125 -0.0177729 -0.0169407 -0.00135125
0.0875 0.08 0.0125 -0.0173889 -0.0637965 -0.00240859
0.0925 0.08 0.0125 -0.0140081 -0.0984227 -0.00280625
0.0975 0.08 0.0125 -0.00684913 -0.123654 -0.000535807
0.0025 0.08 0.0175 0.00238494 -0.15452 -0.00306456
0.0075 0.08 0.0175 0.00420792 -0.111987 -0.00282198
0.0125 0.08 0.0175 0.00472749 -0.063488 -0.000804409
0.0175 0.08 0.0175 0.00422938 -0.0192599 0.000703913
0.0225 0.08 0.0175 0.00368445 0.0214975 0.00175807
0.0275 0.08 0.0175 0.00303247 0.0523335 0.00260926
0.0325 0.08 0.0175 0.00215454 0.0667446 0.00296678
0.0375 0.08 0.0175 0.00100483 0.0656245 0.00240855
0.0425 0.08 0.0175 -0.00248324 0.0646157 0.000568961
0.0475 0.08 0.0175 -0.00661706 0.0680881 -0.000646085
0.0525 0.08 0.0175 -0.0116085 0.0702931 -0.000315161
0.0575 0.08 0.0175 -0.0156293 0.07015 0.000706614
0.0625 0.08 0.0175 -0.0190497 0.0727549 0.00162996
0.0675 0.08 0.0175 -0.0205109 0.0733267 0.00150537
0.0725 0.08 0.0175 -0.0187354 0.0565155 0.00128897
0.0775 0.08 0.0175 -0.01695 0.0214316 0.00158374
0.0825 0.08 0.0175 -0.0157262 -0.0215456 0.00063605
0.0875 0.08 0.0175 -0.0153074 -0.0676535 -0.000345393
0.0925 0.08 0.0175 -0.0119624 -0.109767 -0.00124275
0.0975 0.08 0.0175 -0.00631558 -0.136675 -0.00105447
