# UMean.air  FACE_DATA 80
#  x  y  z  UMean.air_x  UMean.air_y  UMean.air_z  
0.0025 0.63 0.0025 -0.000632313 0.194944 0.000496049
0.0075 0.63 0.0025 -0.00169553 0.207857 0.000483565
0.0125 0.63 0.0025 -0.00176152 0.213468 0.000248627
0.0175 0.63 0.0025 -0.00138634 0.219364 0.000270668
0.0225 0.63 0.0025 -0.00117818 0.22519 0.000554232
0.0275 0.63 0.0025 -0.000700026 0.230285 0.000535504
0.0325 0.63 0.0025 -0.000170386 0.234533 0.000502257
0.0375 0.63 0.0025 0.000522146 0.237317 0.000439252
0.0425 0.63 0.0025 0.00113089 0.238712 0.000391234
0.0475 0.63 0.0025 0.00170466 0.239053 0.000337265
0.0525 0.63 0.0025 0.00204781 0.23864 0.000430737
0.0575 0.63 0.0025 0.00238613 0.23755 0.000490143
0.0625 0.63 0.0025 0.00257591 0.235558 0.000439992
0.0675 0.63 0.0025 0.00291587 0.232354 0.000353003
0.0725 0.63 0.0025 0.00305416 0.228051 0.000262695
0.0775 0.63 0.0025 0.00310853 0.222504 0.000223919
0.0825 0.63 0.0025 0.00286957 0.216859 -0.00033517
0.0875 0.63 0.0025 0.00297753 0.210685 -0.000465585
0.0925 0.63 0.0025 0.00272827 0.205882 9.58571e-06
0.0975 0.63 0.0025 0.00108707 0.19079 -0.000110528
0.0025 0.63 0.0075 7.21962e-05 0.195178 0.00040225
0.0075 0.63 0.0075 0.000308862 0.228935 0.000731466
0.0125 0.63 0.0075 0.000474403 0.227796 0.000398259
0.0175 0.63 0.0075 0.000763435 0.226042 0.000284976
0.0225 0.63 0.0075 0.000782479 0.227209 0.000580031
0.0275 0.63 0.0075 0.00105806 0.226629 0.000474074
0.0325 0.63 0.0075 0.00129936 0.226093 0.000355403
0.0375 0.63 0.0075 0.00153649 0.225465 0.000241154
0.0425 0.63 0.0075 0.00159425 0.224843 0.000175032
0.0475 0.63 0.0075 0.00156608 0.224562 7.27008e-05
0.0525 0.63 0.0075 0.00132138 0.224924 0.000115094
0.0575 0.63 0.0075 0.00108668 0.225844 0.000190868
0.0625 0.63 0.0075 0.000812112 0.227324 0.00022136
0.0675 0.63 0.0075 0.000731276 0.228929 0.000263678
0.0725 0.63 0.0075 0.000735334 0.230465 0.000263474
0.0775 0.63 0.0075 0.000872409 0.232137 0.000264761
0.0825 0.63 0.0075 0.000490114 0.230132 -0.000257323
0.0875 0.63 0.0075 0.000471001 0.233496 -0.000209709
0.0925 0.63 0.0075 0.00066665 0.238735 0.000323403
0.0975 0.63 0.0075 0.000467261 0.194155 0.000178466
0.0025 0.63 0.0125 0.000103416 0.195516 -0.000451487
0.0075 0.63 0.0125 0.000353456 0.229266 -0.000598962
0.0125 0.63 0.0125 0.000542461 0.227989 -0.000341075
0.0175 0.63 0.0125 0.000846194 0.225908 -0.000250818
0.0225 0.63 0.0125 0.000832819 0.227182 -0.000383506
0.0275 0.63 0.0125 0.00105304 0.226505 -0.000392391
0.0325 0.63 0.0125 0.00122194 0.225939 -0.000503134
0.0375 0.63 0.0125 0.001411 0.225457 -0.000631696
0.0425 0.63 0.0125 0.00146275 0.224982 -0.000695783
0.0475 0.63 0.0125 0.00146574 0.224807 -0.000653615
0.0525 0.63 0.0125 0.00125122 0.225104 -0.000564151
0.0575 0.63 0.0125 0.000996143 0.225822 -0.000434358
0.0625 0.63 0.0125 0.000640223 0.227168 -0.000345789
0.0675 0.63 0.0125 0.000466477 0.229018 -0.000195375
0.0725 0.63 0.0125 0.000415325 0.230991 -7.05131e-05
0.0775 0.63 0.0125 0.000570832 0.232877 -0.000141368
0.0825 0.63 0.0125 0.00032103 0.23123 0.000263543
0.0875 0.63 0.0125 0.000371846 0.234739 0.000212162
0.0925 0.63 0.0125 0.000633955 0.23911 -0.000255345
0.0975 0.63 0.0125 0.000524598 0.192957 0.000141024
0.0025 0.63 0.0175 -0.000598814 0.195311 -0.000504921
0.0075 0.63 0.0175 -0.00158819 0.208142 -0.000478693
0.0125 0.63 0.0175 -0.00164851 0.213164 -0.000290899
0.0175 0.63 0.0175 -0.00134349 0.219165 -0.000309532
0.0225 0.63 0.0175 -0.0011287 0.225663 -0.000546994
0.0275 0.63 0.0175 -0.000600483 0.230818 -0.000529084
0.0325 0.63 0.0175 -9.4471e-05 0.234963 -0.00061429
0.0375 0.63 0.0175 0.000450076 0.237995 -0.000725705
0.0425 0.63 0.0175 0.000811508 0.239672 -0.000775642
0.0475 0.63 0.0175 0.00120912 0.240639 -0.000718572
0.0525 0.63 0.0175 0.00150903 0.240536 -0.000634419
0.0575 0.63 0.0175 0.00189499 0.239197 -0.000492796
0.0625 0.63 0.0175 0.00217655 0.236479 -0.000391041
0.0675 0.63 0.0175 0.00254691 0.232504 -0.000256206
0.0725 0.63 0.0175 0.00262933 0.227708 -9.59512e-05
0.0775 0.63 0.0175 0.00269741 0.221579 -5.76462e-05
0.0825 0.63 0.0175 0.00258952 0.215514 0.000403618
0.0875 0.63 0.0175 0.00274804 0.209036 0.000473424
0.0925 0.63 0.0175 0.00240806 0.203615 0.00016692
0.0975 0.63 0.0175 0.000896868 0.190365 0.000224094
