# UMean.water  FACE_DATA 80
#  x  y  z  UMean.water_x  UMean.water_y  UMean.water_z  
0.0025 0.63 0.0025 -7.74241e-05 -0.029062 0.000299302
0.0075 0.63 0.0025 -0.000117878 -0.0161263 7.39641e-05
0.0125 0.63 0.0025 8.45212e-06 -0.0105655 9.39554e-05
0.0175 0.63 0.0025 0.00015486 -0.00468046 0.000208608
0.0225 0.63 0.0025 0.000334762 0.00113749 0.000302178
0.0275 0.63 0.0025 0.000636427 0.00624091 0.000338856
0.0325 0.63 0.0025 0.00086454 0.0105132 0.000331078
0.0375 0.63 0.0025 0.00118994 0.0133139 0.000293839
0.0425 0.63 0.0025 0.00144437 0.0147284 0.000260187
0.0475 0.63 0.0025 0.00167839 0.0150978 0.000254519
0.0525 0.63 0.0025 0.00172716 0.0146962 0.000283286
0.0575 0.63 0.0025 0.00180638 0.0136155 0.000275765
0.0625 0.63 0.0025 0.00174319 0.0116194 0.000236248
0.0675 0.63 0.0025 0.0017885 0.00839176 0.000198197
0.0725 0.63 0.0025 0.00170657 0.00408035 0.00013816
0.0775 0.63 0.0025 0.00168178 -0.00146714 4.97551e-05
0.0825 0.63 0.0025 0.00148163 -0.00708742 -8.29368e-05
0.0875 0.63 0.0025 0.00130131 -0.0132746 -0.00020821
0.0925 0.63 0.0025 0.0010362 -0.0179954 -0.000218394
0.0975 0.63 0.0025 0.000425498 -0.0330263 -0.000145033
0.0025 0.63 0.0075 2.65025e-05 -0.0288228 0.000264456
0.0075 0.63 0.0075 0.000462115 0.00528617 0.00031502
0.0125 0.63 0.0075 0.00056228 0.00396014 0.00022911
0.0175 0.63 0.0075 0.000630141 0.00214158 0.000246295
0.0225 0.63 0.0075 0.000737959 0.00332977 0.000304677
0.0275 0.63 0.0075 0.000958837 0.00271401 0.000278845
0.0325 0.63 0.0075 0.00114365 0.00216595 0.00021129
0.0375 0.63 0.0075 0.00136643 0.00154034 0.000132888
0.0425 0.63 0.0075 0.00147022 0.000925263 7.34191e-05
0.0475 0.63 0.0075 0.00155411 0.000664037 2.97759e-05
0.0525 0.63 0.0075 0.00147636 0.00104961 2.24127e-05
0.0575 0.63 0.0075 0.00140156 0.00198112 2.413e-05
0.0625 0.63 0.0075 0.00123861 0.0034634 4.44407e-05
0.0675 0.63 0.0075 0.00118601 0.00505115 0.000105229
0.0725 0.63 0.0075 0.00108806 0.00657543 0.000139165
0.0775 0.63 0.0075 0.00104704 0.00828394 0.000130605
0.0825 0.63 0.0075 0.000875358 0.00620983 3.69569e-05
0.0875 0.63 0.0075 0.000778237 0.00962627 5.73412e-05
0.0925 0.63 0.0075 0.000672046 0.0151879 0.000148131
0.0975 0.63 0.0075 0.000505207 -0.0298087 9.92518e-05
0.0025 0.63 0.0125 6.15728e-05 -0.0284785 -0.000181418
0.0075 0.63 0.0125 0.000505497 0.0056299 -0.000187983
0.0125 0.63 0.0125 0.000596807 0.00417101 -0.000104386
0.0175 0.63 0.0125 0.000671492 0.00202028 -6.83472e-05
0.0225 0.63 0.0125 0.000770115 0.00332149 -0.000103053
0.0275 0.63 0.0125 0.000952401 0.00260113 -0.000186272
0.0325 0.63 0.0125 0.00110432 0.00200886 -0.000289543
0.0375 0.63 0.0125 0.00131374 0.0015155 -0.000374174
0.0425 0.63 0.0125 0.00140697 0.00104048 -0.000413148
0.0475 0.63 0.0125 0.00149021 0.000878006 -0.00040395
0.0525 0.63 0.0125 0.00140519 0.00120105 -0.000370393
0.0575 0.63 0.0125 0.00130034 0.00193644 -0.000345244
0.0625 0.63 0.0125 0.00110156 0.00328966 -0.000305077
0.0675 0.63 0.0125 0.00101169 0.00514344 -0.000184878
0.0725 0.63 0.0125 0.000868627 0.0071229 -2.88454e-05
0.0775 0.63 0.0125 0.000828785 0.00903666 6.67704e-05
0.0825 0.63 0.0125 0.000713669 0.0073199 0.000145521
0.0875 0.63 0.0125 0.000679817 0.0108868 0.00013266
0.0925 0.63 0.0125 0.000633602 0.0155565 7.07103e-05
0.0975 0.63 0.0125 0.000525198 -0.0310178 0.000127111
0.0025 0.63 0.0175 -6.19573e-05 -0.0286769 -0.000285035
0.0075 0.63 0.0175 -8.50184e-05 -0.0158301 -8.28337e-05
0.0125 0.63 0.0175 7.23542e-05 -0.0108523 -5.40342e-05
0.0175 0.63 0.0175 0.000248388 -0.00485096 -0.000140854
0.0225 0.63 0.0175 0.000460246 0.00165178 -0.000231362
0.0275 0.63 0.0175 0.000744631 0.00680108 -0.00031266
0.0325 0.63 0.0175 0.000911586 0.0109347 -0.000409976
0.0375 0.63 0.0175 0.00113225 0.0139541 -0.000480452
0.0425 0.63 0.0175 0.00124017 0.0156282 -0.000493399
0.0475 0.63 0.0175 0.00138517 0.0166152 -0.000487354
0.0525 0.63 0.0175 0.00134699 0.0165456 -0.000471343
0.0575 0.63 0.0175 0.00129108 0.0152267 -0.000419445
0.0625 0.63 0.0175 0.00115554 0.0125056 -0.000350705
0.0675 0.63 0.0175 0.00115908 0.00854448 -0.000219065
0.0725 0.63 0.0175 0.00101613 0.00377927 -3.45259e-05
0.0775 0.63 0.0175 0.00104478 -0.00236614 0.000123898
0.0825 0.63 0.0175 0.00101043 -0.00842419 0.000251547
0.0875 0.63 0.0175 0.000980975 -0.0149116 0.00036718
0.0925 0.63 0.0175 0.000822877 -0.0202612 0.000405696
0.0975 0.63 0.0175 0.000333504 -0.0334399 0.00025756
