# UMean.air  FACE_DATA 80
#  x  y  z  UMean.air_x  UMean.air_y  UMean.air_z  
0.0025 0.08 0.0025 0.00485697 0.0747339 0.000803484
0.0075 0.08 0.0025 0.00509809 0.10653 0.00261257
0.0125 0.08 0.0025 0.00507632 0.151539 0.00115551
0.0175 0.08 0.0025 0.00485628 0.195691 -0.000898561
0.0225 0.08 0.0025 0.0046497 0.237658 -0.00266223
0.0275 0.08 0.0025 0.00378463 0.272442 -0.00349258
0.0325 0.08 0.0025 0.00365741 0.294831 -0.00448209
0.0375 0.08 0.0025 0.004717 0.30042 -0.00416019
0.0425 0.08 0.0025 0.00214398 0.297135 -0.00193132
0.0475 0.08 0.0025 -0.00263439 0.298426 -0.000559786
0.0525 0.08 0.0025 -0.00916674 0.298456 -0.00201285
0.0575 0.08 0.0025 -0.0175126 0.295554 -0.00504027
0.0625 0.08 0.0025 -0.0240524 0.29981 -0.00827989
0.0675 0.08 0.0025 -0.0238158 0.300286 -0.00893335
0.0725 0.08 0.0025 -0.017986 0.286847 -0.00702551
0.0775 0.08 0.0025 -0.0117024 0.256903 -0.00443269
0.0825 0.08 0.0025 -0.0065127 0.216882 -0.00175311
0.0875 0.08 0.0025 -0.00504851 0.174925 0.000701874
0.0925 0.08 0.0025 -0.00395583 0.133612 0.00285412
0.0975 0.08 0.0025 -0.00266598 0.102047 0.00342418
0.0025 0.08 0.0075 0.00695206 0.0890077 -5.53031e-05
0.0075 0.08 0.0075 0.00893642 0.119717 0.00206121
0.0125 0.08 0.0075 0.00486428 0.158124 0.00119206
0.0175 0.08 0.0075 0.00208221 0.202273 -7.21421e-05
0.0225 0.08 0.0075 -0.000314593 0.248979 -0.00107492
0.0275 0.08 0.0075 -0.00015303 0.290449 -0.00105724
0.0325 0.08 0.0075 0.00256737 0.31726 -0.000986524
0.0375 0.08 0.0075 0.00465406 0.325971 -0.000993121
0.0425 0.08 0.0075 0.00227849 0.322372 3.6333e-05
0.0475 0.08 0.0075 -0.00308907 0.321707 0.000851265
0.0525 0.08 0.0075 -0.011182 0.321255 -0.000542772
0.0575 0.08 0.0075 -0.0194444 0.32137 -0.00391127
0.0625 0.08 0.0075 -0.0234179 0.330601 -0.00793947
0.0675 0.08 0.0075 -0.02008 0.329093 -0.00883347
0.0725 0.08 0.0075 -0.013065 0.309108 -0.0069231
0.0775 0.08 0.0075 -0.00785403 0.27163 -0.00305124
0.0825 0.08 0.0075 -0.00572507 0.22391 0.000622735
0.0875 0.08 0.0075 -0.00686719 0.177542 0.00326668
0.0925 0.08 0.0075 -0.0102316 0.141502 0.00462161
0.0975 0.08 0.0075 -0.0071342 0.114745 0.00459733
0.0025 0.08 0.0125 0.00553429 0.0901167 -0.00679942
0.0075 0.08 0.0125 0.00746664 0.124304 -0.00816101
0.0125 0.08 0.0125 0.00259397 0.165272 -0.00617811
0.0175 0.08 0.0125 0.000244733 0.210522 -0.0026803
0.0225 0.08 0.0125 -0.000869256 0.256095 0.000321579
0.0275 0.08 0.0125 0.000492229 0.295257 0.00338629
0.0325 0.08 0.0125 0.00318324 0.317424 0.00693886
0.0375 0.08 0.0125 0.00480925 0.323848 0.00787442
0.0425 0.08 0.0125 0.00110359 0.319759 0.00486489
0.0475 0.08 0.0125 -0.00551397 0.320786 0.00278646
0.0525 0.08 0.0125 -0.0133977 0.32248 0.00219162
0.0575 0.08 0.0125 -0.0206226 0.32538 0.00256334
0.0625 0.08 0.0125 -0.0232894 0.335543 0.00327837
0.0675 0.08 0.0125 -0.0197299 0.33375 0.00200035
0.0725 0.08 0.0125 -0.0130469 0.31228 0.000284343
0.0775 0.08 0.0125 -0.00801098 0.271592 0.000563895
0.0825 0.08 0.0125 -0.0069102 0.22057 -6.81691e-05
0.0875 0.08 0.0125 -0.00895566 0.173521 -0.00242544
0.0925 0.08 0.0125 -0.0123136 0.1391 -0.00374784
0.0975 0.08 0.0125 -0.00824629 0.115116 -0.00131352
0.0025 0.08 0.0175 0.001321 0.0815653 -0.00424777
0.0075 0.08 0.0175 9.62859e-05 0.123934 -0.00557946
0.0125 0.08 0.0175 -0.00102764 0.172766 -0.00251506
0.0175 0.08 0.0175 -0.000474386 0.215917 0.000670127
0.0225 0.08 0.0175 0.00108266 0.256172 0.00275863
0.0275 0.08 0.0175 0.00310694 0.286669 0.00469435
0.0325 0.08 0.0175 0.00470207 0.300244 0.00718469
0.0375 0.08 0.0175 0.0046602 0.298265 0.00760579
0.0425 0.08 0.0175 -0.000295344 0.29377 0.00453853
0.0475 0.08 0.0175 -0.00671563 0.297113 0.00264741
0.0525 0.08 0.0175 -0.0140138 0.299194 0.00302819
0.0575 0.08 0.0175 -0.0201941 0.299917 0.00460665
0.0625 0.08 0.0175 -0.0235364 0.308075 0.00666327
0.0675 0.08 0.0175 -0.0229747 0.310911 0.00579797
0.0725 0.08 0.0175 -0.0182872 0.293501 0.00406756
0.0775 0.08 0.0175 -0.0131826 0.259636 0.0036396
0.0825 0.08 0.0175 -0.0089954 0.216313 0.00191618
0.0875 0.08 0.0175 -0.0082526 0.169947 -0.000775869
0.0925 0.08 0.0175 -0.00819231 0.128079 -0.0026473
0.0975 0.08 0.0175 -0.00550097 0.100844 -0.00191843
