# alphaMean.air  FACE_DATA 80
#  x  y  z  alphaMean.air
0.0025 0.08 0.0025 0.00928976
0.0075 0.08 0.0025 0.00731585
0.0125 0.08 0.0025 0.00456468
0.0175 0.08 0.0025 0.00332993
0.0225 0.08 0.0025 0.00459032
0.0275 0.08 0.0025 0.00976168
0.0325 0.08 0.0025 0.0198169
0.0375 0.08 0.0025 0.0327321
0.0425 0.08 0.0025 0.045397
0.0475 0.08 0.0025 0.0525706
0.0525 0.08 0.0025 0.0523299
0.0575 0.08 0.0025 0.0459781
0.0625 0.08 0.0025 0.0361506
0.0675 0.08 0.0025 0.0263439
0.0725 0.08 0.0025 0.0168074
0.0775 0.08 0.0025 0.00914939
0.0825 0.08 0.0025 0.00553127
0.0875 0.08 0.0025 0.00634557
0.0925 0.08 0.0025 0.00901147
0.0975 0.08 0.0025 0.00980369
0.0025 0.08 0.0075 0.00969669
0.0075 0.08 0.0075 0.0126274
0.0125 0.08 0.0075 0.00779604
0.0175 0.08 0.0075 0.00479504
0.0225 0.08 0.0075 0.00666288
0.0275 0.08 0.0075 0.0139986
0.0325 0.08 0.0075 0.026445
0.0375 0.08 0.0075 0.0417508
0.0425 0.08 0.0075 0.0564636
0.0475 0.08 0.0075 0.0648303
0.0525 0.08 0.0075 0.0653705
0.0575 0.08 0.0075 0.0575128
0.0625 0.08 0.0075 0.0458597
0.0675 0.08 0.0075 0.0336594
0.0725 0.08 0.0075 0.0218566
0.0775 0.08 0.0075 0.0125943
0.0825 0.08 0.0075 0.00808728
0.0875 0.08 0.0075 0.0102823
0.0925 0.08 0.0075 0.0158128
0.0975 0.08 0.0075 0.0115751
0.0025 0.08 0.0125 0.010021
0.0075 0.08 0.0125 0.0132318
0.0125 0.08 0.0125 0.00835359
0.0175 0.08 0.0125 0.00503618
0.0225 0.08 0.0125 0.00655309
0.0275 0.08 0.0125 0.0136296
0.0325 0.08 0.0125 0.025988
0.0375 0.08 0.0125 0.0415125
0.0425 0.08 0.0125 0.0564165
0.0475 0.08 0.0125 0.0652081
0.0525 0.08 0.0125 0.0649225
0.0575 0.08 0.0125 0.0574836
0.0625 0.08 0.0125 0.0453454
0.0675 0.08 0.0125 0.032905
0.0725 0.08 0.0125 0.021204
0.0775 0.08 0.0125 0.0125075
0.0825 0.08 0.0125 0.00909318
0.0875 0.08 0.0125 0.0114663
0.0925 0.08 0.0125 0.0160896
0.0975 0.08 0.0125 0.0116514
0.0025 0.08 0.0175 0.0101034
0.0075 0.08 0.0175 0.00831052
0.0125 0.08 0.0175 0.00524975
0.0175 0.08 0.0175 0.00346725
0.0225 0.08 0.0175 0.00436937
0.0275 0.08 0.0175 0.00909616
0.0325 0.08 0.0175 0.018257
0.0375 0.08 0.0175 0.0311194
0.0425 0.08 0.0175 0.0445627
0.0475 0.08 0.0175 0.0518387
0.0525 0.08 0.0175 0.0500519
0.0575 0.08 0.0175 0.0437023
0.0625 0.08 0.0175 0.0343656
0.0675 0.08 0.0175 0.024351
0.0725 0.08 0.0175 0.0153394
0.0775 0.08 0.0175 0.00903483
0.0825 0.08 0.0175 0.00682402
0.0875 0.08 0.0175 0.0070896
0.0925 0.08 0.0175 0.00857804
0.0975 0.08 0.0175 0.00955299
