# alphaMean.water  FACE_DATA 80
#  x  y  z  alphaMean.water
0.0025 0.08 0.0025 0.99071
0.0075 0.08 0.0025 0.992684
0.0125 0.08 0.0025 0.995435
0.0175 0.08 0.0025 0.99667
0.0225 0.08 0.0025 0.99541
0.0275 0.08 0.0025 0.990238
0.0325 0.08 0.0025 0.980183
0.0375 0.08 0.0025 0.967268
0.0425 0.08 0.0025 0.954603
0.0475 0.08 0.0025 0.947429
0.0525 0.08 0.0025 0.94767
0.0575 0.08 0.0025 0.954022
0.0625 0.08 0.0025 0.963849
0.0675 0.08 0.0025 0.973656
0.0725 0.08 0.0025 0.983193
0.0775 0.08 0.0025 0.990851
0.0825 0.08 0.0025 0.994469
0.0875 0.08 0.0025 0.993654
0.0925 0.08 0.0025 0.990989
0.0975 0.08 0.0025 0.990196
0.0025 0.08 0.0075 0.990303
0.0075 0.08 0.0075 0.987373
0.0125 0.08 0.0075 0.992204
0.0175 0.08 0.0075 0.995205
0.0225 0.08 0.0075 0.993337
0.0275 0.08 0.0075 0.986001
0.0325 0.08 0.0075 0.973555
0.0375 0.08 0.0075 0.958249
0.0425 0.08 0.0075 0.943536
0.0475 0.08 0.0075 0.93517
0.0525 0.08 0.0075 0.934629
0.0575 0.08 0.0075 0.942487
0.0625 0.08 0.0075 0.95414
0.0675 0.08 0.0075 0.966341
0.0725 0.08 0.0075 0.978143
0.0775 0.08 0.0075 0.987406
0.0825 0.08 0.0075 0.991913
0.0875 0.08 0.0075 0.989718
0.0925 0.08 0.0075 0.984187
0.0975 0.08 0.0075 0.988425
0.0025 0.08 0.0125 0.989979
0.0075 0.08 0.0125 0.986768
0.0125 0.08 0.0125 0.991646
0.0175 0.08 0.0125 0.994964
0.0225 0.08 0.0125 0.993447
0.0275 0.08 0.0125 0.98637
0.0325 0.08 0.0125 0.974012
0.0375 0.08 0.0125 0.958488
0.0425 0.08 0.0125 0.943583
0.0475 0.08 0.0125 0.934792
0.0525 0.08 0.0125 0.935078
0.0575 0.08 0.0125 0.942516
0.0625 0.08 0.0125 0.954655
0.0675 0.08 0.0125 0.967095
0.0725 0.08 0.0125 0.978796
0.0775 0.08 0.0125 0.987493
0.0825 0.08 0.0125 0.990907
0.0875 0.08 0.0125 0.988534
0.0925 0.08 0.0125 0.98391
0.0975 0.08 0.0125 0.988349
0.0025 0.08 0.0175 0.989897
0.0075 0.08 0.0175 0.991689
0.0125 0.08 0.0175 0.99475
0.0175 0.08 0.0175 0.996533
0.0225 0.08 0.0175 0.995631
0.0275 0.08 0.0175 0.990904
0.0325 0.08 0.0175 0.981743
0.0375 0.08 0.0175 0.968881
0.0425 0.08 0.0175 0.955437
0.0475 0.08 0.0175 0.948161
0.0525 0.08 0.0175 0.949948
0.0575 0.08 0.0175 0.956298
0.0625 0.08 0.0175 0.965634
0.0675 0.08 0.0175 0.975649
0.0725 0.08 0.0175 0.984661
0.0775 0.08 0.0175 0.990965
0.0825 0.08 0.0175 0.993176
0.0875 0.08 0.0175 0.99291
0.0925 0.08 0.0175 0.991422
0.0975 0.08 0.0175 0.990447
