# alphaMean.water  FACE_DATA 80
#  x  y  z  alphaMean.water
0.0025 0.63 0.0025 0.971369
0.0075 0.63 0.0025 0.971912
0.0125 0.63 0.0025 0.972518
0.0175 0.63 0.0025 0.971706
0.0225 0.63 0.0025 0.971228
0.0275 0.63 0.0025 0.971043
0.0325 0.63 0.0025 0.970973
0.0375 0.63 0.0025 0.970951
0.0425 0.63 0.0025 0.970718
0.0475 0.63 0.0025 0.970463
0.0525 0.63 0.0025 0.97039
0.0575 0.63 0.0025 0.970654
0.0625 0.63 0.0025 0.971112
0.0675 0.63 0.0025 0.971451
0.0725 0.63 0.0025 0.971383
0.0775 0.63 0.0025 0.971389
0.0825 0.63 0.0025 0.971823
0.0875 0.63 0.0025 0.972663
0.0925 0.63 0.0025 0.972846
0.0975 0.63 0.0025 0.971259
0.0025 0.63 0.0075 0.965135
0.0075 0.63 0.0075 0.935233
0.0125 0.63 0.0075 0.941931
0.0175 0.63 0.0075 0.94454
0.0225 0.63 0.0075 0.944901
0.0275 0.63 0.0075 0.945774
0.0325 0.63 0.0075 0.94653
0.0375 0.63 0.0075 0.947152
0.0425 0.63 0.0075 0.947629
0.0475 0.63 0.0075 0.947802
0.0525 0.63 0.0075 0.947772
0.0575 0.63 0.0075 0.947622
0.0625 0.63 0.0075 0.947301
0.0675 0.63 0.0075 0.946594
0.0725 0.63 0.0075 0.945966
0.0775 0.63 0.0075 0.945078
0.0825 0.63 0.0075 0.944327
0.0875 0.63 0.0075 0.940701
0.0925 0.63 0.0075 0.933599
0.0975 0.63 0.0075 0.964478
0.0025 0.63 0.0125 0.966
0.0075 0.63 0.0125 0.935918
0.0125 0.63 0.0125 0.942591
0.0175 0.63 0.0125 0.945052
0.0225 0.63 0.0125 0.945273
0.0275 0.63 0.0125 0.946066
0.0325 0.63 0.0125 0.946801
0.0375 0.63 0.0125 0.94738
0.0425 0.63 0.0125 0.947793
0.0475 0.63 0.0125 0.947928
0.0525 0.63 0.0125 0.947898
0.0575 0.63 0.0125 0.947691
0.0625 0.63 0.0125 0.947292
0.0675 0.63 0.0125 0.946564
0.0725 0.63 0.0125 0.945932
0.0775 0.63 0.0125 0.945056
0.0825 0.63 0.0125 0.944323
0.0875 0.63 0.0125 0.940608
0.0925 0.63 0.0125 0.933438
0.0975 0.63 0.0125 0.964672
0.0025 0.63 0.0175 0.97086
0.0075 0.63 0.0175 0.971423
0.0125 0.63 0.0175 0.972425
0.0175 0.63 0.0175 0.97185
0.0225 0.63 0.0175 0.971388
0.0275 0.63 0.0175 0.971219
0.0325 0.63 0.0175 0.971208
0.0375 0.63 0.0175 0.971196
0.0425 0.63 0.0175 0.970932
0.0475 0.63 0.0175 0.97061
0.0525 0.63 0.0175 0.970478
0.0575 0.63 0.0175 0.970642
0.0625 0.63 0.0175 0.971064
0.0675 0.63 0.0175 0.971378
0.0725 0.63 0.0175 0.971355
0.0775 0.63 0.0175 0.971416
0.0825 0.63 0.0175 0.971924
0.0875 0.63 0.0175 0.973044
0.0925 0.63 0.0175 0.973272
0.0975 0.63 0.0175 0.971743
