# alphaMean.air  FACE_DATA 80
#  x  y  z  alphaMean.air
0.0025 0.63 0.0025 0.0286315
0.0075 0.63 0.0025 0.0280876
0.0125 0.63 0.0025 0.0274816
0.0175 0.63 0.0025 0.0282936
0.0225 0.63 0.0025 0.0287718
0.0275 0.63 0.0025 0.0289566
0.0325 0.63 0.0025 0.0290274
0.0375 0.63 0.0025 0.0290494
0.0425 0.63 0.0025 0.0292823
0.0475 0.63 0.0025 0.0295371
0.0525 0.63 0.0025 0.0296101
0.0575 0.63 0.0025 0.0293456
0.0625 0.63 0.0025 0.0288885
0.0675 0.63 0.0025 0.0285492
0.0725 0.63 0.0025 0.0286168
0.0775 0.63 0.0025 0.0286106
0.0825 0.63 0.0025 0.028177
0.0875 0.63 0.0025 0.0273369
0.0925 0.63 0.0025 0.0271543
0.0975 0.63 0.0025 0.028741
0.0025 0.63 0.0075 0.0348655
0.0075 0.63 0.0075 0.0647675
0.0125 0.63 0.0075 0.0580693
0.0175 0.63 0.0075 0.0554605
0.0225 0.63 0.0075 0.0550985
0.0275 0.63 0.0075 0.0542257
0.0325 0.63 0.0075 0.0534699
0.0375 0.63 0.0075 0.0528482
0.0425 0.63 0.0075 0.0523711
0.0475 0.63 0.0075 0.0521976
0.0525 0.63 0.0075 0.0522281
0.0575 0.63 0.0075 0.0523785
0.0625 0.63 0.0075 0.0526993
0.0675 0.63 0.0075 0.053406
0.0725 0.63 0.0075 0.0540337
0.0775 0.63 0.0075 0.0549219
0.0825 0.63 0.0075 0.0556733
0.0875 0.63 0.0075 0.0592989
0.0925 0.63 0.0075 0.0664013
0.0975 0.63 0.0075 0.0355217
0.0025 0.63 0.0125 0.0340005
0.0075 0.63 0.0125 0.0640816
0.0125 0.63 0.0125 0.057409
0.0175 0.63 0.0125 0.0549476
0.0225 0.63 0.0125 0.0547274
0.0275 0.63 0.0125 0.0539341
0.0325 0.63 0.0125 0.0531987
0.0375 0.63 0.0125 0.0526202
0.0425 0.63 0.0125 0.0522074
0.0475 0.63 0.0125 0.0520719
0.0525 0.63 0.0125 0.0521022
0.0575 0.63 0.0125 0.0523093
0.0625 0.63 0.0125 0.052708
0.0675 0.63 0.0125 0.0534356
0.0725 0.63 0.0125 0.0540682
0.0775 0.63 0.0125 0.0549437
0.0825 0.63 0.0125 0.055677
0.0875 0.63 0.0125 0.0593919
0.0925 0.63 0.0125 0.0665618
0.0975 0.63 0.0125 0.0353276
0.0025 0.63 0.0175 0.0291396
0.0075 0.63 0.0175 0.0285771
0.0125 0.63 0.0175 0.0275751
0.0175 0.63 0.0175 0.0281496
0.0225 0.63 0.0175 0.0286122
0.0275 0.63 0.0175 0.0287809
0.0325 0.63 0.0175 0.0287923
0.0375 0.63 0.0175 0.0288039
0.0425 0.63 0.0175 0.0290683
0.0475 0.63 0.0175 0.0293896
0.0525 0.63 0.0175 0.0295218
0.0575 0.63 0.0175 0.0293577
0.0625 0.63 0.0175 0.0289362
0.0675 0.63 0.0175 0.0286218
0.0725 0.63 0.0175 0.028645
0.0775 0.63 0.0175 0.0285837
0.0825 0.63 0.0175 0.0280763
0.0875 0.63 0.0175 0.026956
0.0925 0.63 0.0175 0.0267277
0.0975 0.63 0.0175 0.0282567
