# UMean.water  FACE_DATA 80
#  x  y  z  UMean.water_x  UMean.water_y  UMean.water_z  
0.0025 0.08 0.0025 0.00554046 -0.224841 0.00176263
0.0075 0.08 0.0025 0.0107811 -0.189461 0.00173575
0.0125 0.08 0.0025 0.0170298 -0.147629 0.000755905
0.0175 0.08 0.0025 0.0205199 -0.1045 0.000532326
0.0225 0.08 0.0025 0.022731 -0.0562994 0.000695816
0.0275 0.08 0.0025 0.0216612 0.00400994 0.000255317
0.0325 0.08 0.0025 0.0201282 0.0692688 -0.000473617
0.0375 0.08 0.0025 0.0173419 0.129078 -0.000831675
0.0425 0.08 0.0025 0.0128229 0.176273 -0.00111629
0.0475 0.08 0.0025 0.00664626 0.198734 -0.00153085
0.0525 0.08 0.0025 -0.00170801 0.194668 -0.00188823
0.0575 0.08 0.0025 -0.0112614 0.171207 -0.0020067
0.0625 0.08 0.0025 -0.0178936 0.134347 -0.00184534
0.0675 0.08 0.0025 -0.0205356 0.087499 -0.00166807
0.0725 0.08 0.0025 -0.0207544 0.0331421 -0.001228
0.0775 0.08 0.0025 -0.0197958 -0.0221742 -0.000184208
0.0825 0.08 0.0025 -0.0170871 -0.0762005 0.000801179
0.0875 0.08 0.0025 -0.0139788 -0.121559 0.00121313
0.0925 0.08 0.0025 -0.00894707 -0.163895 0.00242392
0.0975 0.08 0.0025 -0.00519287 -0.20213 0.00194611
0.0025 0.08 0.0075 0.00669518 -0.189197 0.0025096
0.0075 0.08 0.0075 0.0148074 -0.154412 0.00280942
0.0125 0.08 0.0075 0.0210438 -0.117401 0.00213501
0.0175 0.08 0.0075 0.0245663 -0.0802836 0.00219243
0.0225 0.08 0.0075 0.0264784 -0.0372049 0.00299647
0.0275 0.08 0.0075 0.0257225 0.0191175 0.002969
0.0325 0.08 0.0075 0.0236932 0.085094 0.00184948
0.0375 0.08 0.0075 0.0198847 0.149115 0.00118758
0.0425 0.08 0.0075 0.0147078 0.198616 0.000312198
0.0475 0.08 0.0075 0.00796429 0.222644 -0.000412221
0.0525 0.08 0.0075 -0.000986332 0.219623 -0.000701297
0.0575 0.08 0.0075 -0.0104668 0.195065 -0.000624298
0.0625 0.08 0.0075 -0.0179135 0.155476 -0.000251663
0.0675 0.08 0.0075 -0.022257 0.104671 -0.000229178
0.0725 0.08 0.0075 -0.0234465 0.0478755 7.42803e-05
0.0775 0.08 0.0075 -0.0229497 -0.00727499 0.00136489
0.0825 0.08 0.0075 -0.0205153 -0.0544115 0.00186626
0.0875 0.08 0.0075 -0.0173388 -0.0932987 0.00214387
0.0925 0.08 0.0075 -0.012395 -0.130382 0.00387361
0.0975 0.08 0.0075 -0.00571692 -0.167554 0.00236536
0.0025 0.08 0.0125 0.00682479 -0.190467 -0.00188831
0.0075 0.08 0.0125 0.0150468 -0.155143 -0.00279826
0.0125 0.08 0.0125 0.0211402 -0.116386 -0.00238831
0.0175 0.08 0.0125 0.0243595 -0.0778988 -0.00145582
0.0225 0.08 0.0125 0.02629 -0.035021 0.000413247
0.0275 0.08 0.0125 0.0259776 0.0182882 0.00127912
0.0325 0.08 0.0125 0.0243567 0.080608 0.00113946
0.0375 0.08 0.0125 0.020932 0.143768 0.00130228
0.0425 0.08 0.0125 0.0159212 0.193715 0.000878986
0.0475 0.08 0.0125 0.00921865 0.219309 0.000540395
0.0525 0.08 0.0125 0.000298505 0.217816 0.000529589
0.0575 0.08 0.0125 -0.00917689 0.195138 0.00066134
0.0625 0.08 0.0125 -0.0171147 0.155687 0.000280945
0.0675 0.08 0.0125 -0.0221955 0.103194 -0.000383767
0.0725 0.08 0.0125 -0.0238575 0.0449802 -0.00119509
0.0775 0.08 0.0125 -0.0234092 -0.0100483 -0.00173202
0.0825 0.08 0.0125 -0.0210723 -0.0556707 -0.00238471
0.0875 0.08 0.0125 -0.0174595 -0.0944861 -0.00250862
0.0925 0.08 0.0125 -0.012126 -0.130824 -0.00169775
0.0975 0.08 0.0125 -0.00543349 -0.166022 -0.00160242
0.0025 0.08 0.0175 0.00600742 -0.228632 -0.0015004
0.0075 0.08 0.0175 0.0115111 -0.191406 -0.00174224
0.0125 0.08 0.0175 0.0169723 -0.145116 -0.000914417
0.0175 0.08 0.0175 0.0192784 -0.0979679 -0.000186645
0.0225 0.08 0.0175 0.0219346 -0.0522273 0.00112223
0.0275 0.08 0.0175 0.022948 -0.00208901 0.00191788
0.0325 0.08 0.0175 0.0223993 0.0547651 0.00188106
0.0375 0.08 0.0175 0.0199502 0.113501 0.00232436
0.0425 0.08 0.0175 0.0163489 0.159915 0.00222591
0.0475 0.08 0.0175 0.0105685 0.184418 0.0018825
0.0525 0.08 0.0175 0.0015977 0.184906 0.0016676
0.0575 0.08 0.0175 -0.00794329 0.167716 0.00195919
0.0625 0.08 0.0175 -0.0155422 0.133424 0.00172577
0.0675 0.08 0.0175 -0.0207636 0.0819306 0.00122988
0.0725 0.08 0.0175 -0.0221267 0.0246801 0.000576987
0.0775 0.08 0.0175 -0.0216192 -0.031036 -0.000190678
0.0825 0.08 0.0175 -0.0194173 -0.0813381 -0.000848807
0.0875 0.08 0.0175 -0.0159414 -0.128401 -0.00123263
0.0925 0.08 0.0175 -0.00961257 -0.168638 -0.000757656
0.0975 0.08 0.0175 -0.00498726 -0.198505 -0.000682322
