# UMean.air  FACE_DATA 80
#  x  y  z  UMean.air_x  UMean.air_y  UMean.air_z  
0.0025 0.08 0.0025 0.00546093 0.0100804 0.00731159
0.0075 0.08 0.0025 0.00829405 0.0459936 0.00916331
0.0125 0.08 0.0025 0.0103876 0.0885618 0.00788245
0.0175 0.08 0.0025 0.00997075 0.129511 0.00621332
0.0225 0.08 0.0025 0.00771223 0.176895 0.00458109
0.0275 0.08 0.0025 0.00364293 0.237017 0.00205374
0.0325 0.08 0.0025 0.0021434 0.301381 -0.0008689
0.0375 0.08 0.0025 0.00174334 0.360494 -0.00276247
0.0425 0.08 0.0025 0.00248414 0.406703 -0.00439854
0.0475 0.08 0.0025 0.00339327 0.428138 -0.00629549
0.0525 0.08 0.0025 0.00172085 0.423657 -0.00703757
0.0575 0.08 0.0025 -0.00181539 0.400678 -0.00643865
0.0625 0.08 0.0025 -0.00430516 0.364886 -0.00422677
0.0675 0.08 0.0025 -0.00569193 0.318992 -0.0020823
0.0725 0.08 0.0025 -0.00690356 0.265497 0.00017087
0.0775 0.08 0.0025 -0.00829975 0.210916 0.00350935
0.0825 0.08 0.0025 -0.00779386 0.157331 0.00681245
0.0875 0.08 0.0025 -0.00622835 0.112328 0.00822359
0.0925 0.08 0.0025 -0.00376646 0.0712241 0.00954791
0.0975 0.08 0.0025 -0.00342904 0.033739 0.00728364
0.0025 0.08 0.0075 0.0119497 0.0475002 0.00790484
0.0075 0.08 0.0075 0.0150785 0.0793738 0.0103967
0.0125 0.08 0.0075 0.00877057 0.117163 0.00923029
0.0175 0.08 0.0075 0.00702758 0.150067 0.00742748
0.0225 0.08 0.0075 0.00355877 0.193924 0.00645122
0.0275 0.08 0.0075 -0.00256406 0.250743 0.0049154
0.0325 0.08 0.0075 -0.00558469 0.316662 0.00204673
0.0375 0.08 0.0075 -0.00502323 0.380397 -5.32721e-05
0.0425 0.08 0.0075 -0.00143472 0.429326 -0.0022658
0.0475 0.08 0.0075 0.00265849 0.452568 -0.00463139
0.0525 0.08 0.0075 0.00388463 0.449115 -0.0053308
0.0575 0.08 0.0075 0.00335605 0.424937 -0.00493573
0.0625 0.08 0.0075 0.003144 0.385846 -0.00262155
0.0675 0.08 0.0075 0.00215747 0.335721 -0.000685276
0.0725 0.08 0.0075 -0.000541746 0.279131 0.001198
0.0775 0.08 0.0075 -0.00481641 0.2237 0.0048985
0.0825 0.08 0.0075 -0.00697325 0.176458 0.00826112
0.0875 0.08 0.0075 -0.00604618 0.137548 0.0098118
0.0925 0.08 0.0075 -0.0108616 0.101886 0.011516
0.0975 0.08 0.0075 -0.00962259 0.0668526 0.00747833
0.0025 0.08 0.0125 0.0125355 0.0477654 -0.00806666
0.0075 0.08 0.0125 0.0157126 0.0803255 -0.0109794
0.0125 0.08 0.0125 0.00852736 0.118487 -0.0102709
0.0175 0.08 0.0125 0.00673177 0.152493 -0.0079319
0.0225 0.08 0.0125 0.00365403 0.195913 -0.00421069
0.0275 0.08 0.0125 -0.00196714 0.249702 -0.000213711
0.0325 0.08 0.0125 -0.00486801 0.312053 0.0027063
0.0375 0.08 0.0125 -0.0042032 0.374958 0.00467563
0.0425 0.08 0.0125 -0.000621466 0.424424 0.00571182
0.0475 0.08 0.0125 0.00359302 0.449305 0.00641349
0.0525 0.08 0.0125 0.00479127 0.447291 0.00666773
0.0575 0.08 0.0125 0.0042757 0.424867 0.00526965
0.0625 0.08 0.0125 0.00375137 0.385842 0.00305363
0.0675 0.08 0.0125 0.00201 0.334089 0.000471858
0.0725 0.08 0.0125 -0.00086565 0.276185 -0.00271117
0.0775 0.08 0.0125 -0.0045744 0.220759 -0.00546344
0.0825 0.08 0.0125 -0.00687965 0.175266 -0.00728626
0.0875 0.08 0.0125 -0.00619097 0.136419 -0.00827038
0.0925 0.08 0.0125 -0.0107267 0.101212 -0.00808857
0.0975 0.08 0.0125 -0.00938001 0.0684362 -0.00689103
0.0025 0.08 0.0175 0.00615106 0.00515379 -0.00782247
0.0075 0.08 0.0175 0.00955079 0.0440058 -0.00984077
0.0125 0.08 0.0175 0.0102199 0.0926043 -0.00848222
0.0175 0.08 0.0175 0.00898169 0.135857 -0.00613734
0.0225 0.08 0.0175 0.00927161 0.180682 -0.00306893
0.0275 0.08 0.0175 0.00702878 0.230485 0.000132989
0.0325 0.08 0.0175 0.00478854 0.286743 0.00285413
0.0375 0.08 0.0175 0.00388679 0.344559 0.00516122
0.0425 0.08 0.0175 0.00561202 0.390259 0.006545
0.0475 0.08 0.0175 0.00701889 0.413963 0.00744631
0.0525 0.08 0.0175 0.00429305 0.413814 0.0074934
0.0575 0.08 0.0175 0.000192811 0.396905 0.00657381
0.0625 0.08 0.0175 -0.0031113 0.363372 0.0045559
0.0675 0.08 0.0175 -0.00658871 0.313103 0.00212707
0.0725 0.08 0.0175 -0.00825848 0.256921 -0.000718202
0.0775 0.08 0.0175 -0.00928341 0.201665 -0.00364236
0.0825 0.08 0.0175 -0.0090755 0.151965 -0.00577397
0.0875 0.08 0.0175 -0.00858607 0.105892 -0.0071807
0.0925 0.08 0.0175 -0.00553786 0.066196 -0.00737738
0.0975 0.08 0.0175 -0.0039396 0.0370485 -0.00599885
