# UMean.air  FACE_DATA 80
#  x  y  z  UMean.air_x  UMean.air_y  UMean.air_z  
0.0025 0.63 0.0025 0.00158812 0.144789 -0.00147477
0.0075 0.63 0.0025 -0.000223381 0.173109 0.000650604
0.0125 0.63 0.0025 -0.0023311 0.182751 -0.000395007
0.0175 0.63 0.0025 -0.000911249 0.190728 -0.000417063
0.0225 0.63 0.0025 0.000268207 0.196131 -0.000218815
0.0275 0.63 0.0025 0.00131896 0.19943 3.66045e-05
0.0325 0.63 0.0025 0.00194204 0.201602 0.000434913
0.0375 0.63 0.0025 0.00237978 0.20295 0.000863502
0.0425 0.63 0.0025 0.00275902 0.203809 0.000989638
0.0475 0.63 0.0025 0.00315941 0.204039 0.00100814
0.0525 0.63 0.0025 0.00338479 0.203659 0.000986864
0.0575 0.63 0.0025 0.00355177 0.20283 0.000949832
0.0625 0.63 0.0025 0.003563 0.202154 0.00088174
0.0675 0.63 0.0025 0.00371626 0.20154 0.000810794
0.0725 0.63 0.0025 0.00382537 0.200112 0.000666259
0.0775 0.63 0.0025 0.00405755 0.19724 0.000327256
0.0825 0.63 0.0025 0.00432638 0.192204 -1.09304e-05
0.0875 0.63 0.0025 0.00523603 0.18438 2.1084e-05
0.0925 0.63 0.0025 0.00464376 0.171924 0.00129833
0.0975 0.63 0.0025 0.00169687 0.143101 0.00162408
0.0025 0.63 0.0075 0.00173334 0.202571 -0.00115946
0.0075 0.63 0.0075 0.00248056 0.261516 0.00106109
0.0125 0.63 0.0075 0.00201959 0.270453 0.000107841
0.0175 0.63 0.0075 0.00340569 0.272335 0.000271323
0.0225 0.63 0.0075 0.00402044 0.273051 0.000596939
0.0275 0.63 0.0075 0.00450763 0.272328 0.000978913
0.0325 0.63 0.0075 0.00471655 0.270994 0.00145569
0.0375 0.63 0.0075 0.00479992 0.269164 0.00191436
0.0425 0.63 0.0075 0.00458294 0.267093 0.00200035
0.0475 0.63 0.0075 0.00407021 0.265343 0.00196295
0.0525 0.63 0.0075 0.00332458 0.26431 0.00197124
0.0575 0.63 0.0075 0.00259214 0.264105 0.0019632
0.0625 0.63 0.0075 0.00189253 0.264831 0.00182043
0.0675 0.63 0.0075 0.0014496 0.266509 0.00170635
0.0725 0.63 0.0075 0.00109732 0.268103 0.00153559
0.0775 0.63 0.0075 0.000953188 0.268891 0.00115738
0.0825 0.63 0.0075 0.000521381 0.268014 0.000770897
0.0875 0.63 0.0075 0.000867312 0.265468 0.000764272
0.0925 0.63 0.0075 -0.00117377 0.254838 0.0019972
0.0975 0.63 0.0075 -0.00166917 0.197012 0.00193382
0.0025 0.63 0.0125 0.00172723 0.200836 0.000690524
0.0075 0.63 0.0125 0.00238691 0.261092 -0.00131327
0.0125 0.63 0.0125 0.00191779 0.269857 -0.000174532
0.0175 0.63 0.0125 0.00335742 0.271573 -0.000130625
0.0225 0.63 0.0125 0.0039872 0.272263 -0.000326565
0.0275 0.63 0.0125 0.00447487 0.27156 -0.000595435
0.0325 0.63 0.0125 0.00467687 0.270224 -0.00112522
0.0375 0.63 0.0125 0.00473883 0.268471 -0.00164994
0.0425 0.63 0.0125 0.00450225 0.26662 -0.00179944
0.0475 0.63 0.0125 0.00404699 0.26509 -0.00184259
0.0525 0.63 0.0125 0.00338707 0.264106 -0.0019817
0.0575 0.63 0.0125 0.00270673 0.263905 -0.00204977
0.0625 0.63 0.0125 0.00200323 0.264664 -0.00200056
0.0675 0.63 0.0125 0.00149277 0.266354 -0.00198883
0.0725 0.63 0.0125 0.00103705 0.268022 -0.00190459
0.0775 0.63 0.0125 0.00077483 0.268927 -0.00153121
0.0825 0.63 0.0125 0.000243043 0.2682 -0.00108307
0.0875 0.63 0.0125 0.000569897 0.265841 -0.000953138
0.0925 0.63 0.0125 -0.00139537 0.255289 -0.00200363
0.0975 0.63 0.0125 -0.00169185 0.197121 -0.00270303
0.0025 0.63 0.0175 0.00127568 0.147768 0.00107961
0.0075 0.63 0.0175 -0.000347883 0.176542 -0.000974933
0.0125 0.63 0.0175 -0.00214824 0.184838 0.000237369
0.0175 0.63 0.0175 -0.000635411 0.190883 0.000429677
0.0225 0.63 0.0175 0.000442886 0.195388 0.000275525
0.0275 0.63 0.0175 0.00143595 0.198478 2.67149e-05
0.0325 0.63 0.0175 0.00206002 0.200544 -0.000417338
0.0375 0.63 0.0175 0.00244656 0.202052 -0.000861793
0.0425 0.63 0.0175 0.00285941 0.203303 -0.000942157
0.0475 0.63 0.0175 0.00346031 0.203864 -0.000912991
0.0525 0.63 0.0175 0.00391933 0.203538 -0.000967365
0.0575 0.63 0.0175 0.00420606 0.20269 -0.000976686
0.0625 0.63 0.0175 0.00421693 0.201951 -0.000960454
0.0675 0.63 0.0175 0.00417299 0.201152 -0.000964848
0.0725 0.63 0.0175 0.00393229 0.199628 -0.000880094
0.0775 0.63 0.0175 0.00372396 0.196901 -0.000550295
0.0825 0.63 0.0175 0.00370261 0.192266 -0.000251465
0.0875 0.63 0.0175 0.00442917 0.184997 -0.000228221
0.0925 0.63 0.0175 0.00498911 0.17306 -0.00139916
0.0975 0.63 0.0175 0.00233638 0.143603 -0.00245042
