# UMean.water  FACE_DATA 80
#  x  y  z  UMean.water_x  UMean.water_y  UMean.water_z  
0.0025 0.63 0.0025 -0.00038169 -0.0799115 0.000585388
0.0075 0.63 0.0025 -0.00104541 -0.0515141 0.000306514
0.0125 0.63 0.0025 -0.000890118 -0.0420786 -0.000120939
0.0175 0.63 0.0025 -0.000544291 -0.03411 -0.000382398
0.0225 0.63 0.0025 2.63212e-05 -0.0287229 -0.000507792
0.0275 0.63 0.0025 0.000760481 -0.0254487 -0.00055304
0.0325 0.63 0.0025 0.00144669 -0.0232823 -0.000553433
0.0375 0.63 0.0025 0.00214823 -0.0219132 -0.000549796
0.0425 0.63 0.0025 0.00266578 -0.0210001 -0.000577696
0.0475 0.63 0.0025 0.0030472 -0.0207263 -0.000647817
0.0525 0.63 0.0025 0.0032752 -0.0210596 -0.000757516
0.0575 0.63 0.0025 0.00354816 -0.021845 -0.000797262
0.0625 0.63 0.0025 0.00369392 -0.0225093 -0.000724576
0.0675 0.63 0.0025 0.0038945 -0.0231288 -0.000687684
0.0725 0.63 0.0025 0.00396834 -0.0245403 -0.000711236
0.0775 0.63 0.0025 0.00405364 -0.0273697 -0.000728915
0.0825 0.63 0.0025 0.00386552 -0.0323758 -0.000671246
0.0875 0.63 0.0025 0.00356754 -0.0401707 -0.000415688
0.0925 0.63 0.0025 0.00269043 -0.052512 0.000287703
0.0975 0.63 0.0025 0.000899094 -0.081481 0.00084456
0.0025 0.63 0.0075 0.00027881 -0.0217973 0.000776208
0.0075 0.63 0.0075 0.0015302 0.0380155 0.00057332
0.0125 0.63 0.0075 0.0021837 0.0465942 0.000268659
0.0175 0.63 0.0075 0.00260076 0.0483311 0.000196977
0.0225 0.63 0.0075 0.00296252 0.0490389 0.000172444
0.0275 0.63 0.0075 0.0032041 0.0483101 0.000231989
0.0325 0.63 0.0075 0.0033393 0.0469806 0.000320082
0.0375 0.63 0.0075 0.00349404 0.0451566 0.000382384
0.0425 0.63 0.0075 0.00356365 0.0430884 0.000352856
0.0475 0.63 0.0075 0.0035338 0.0413541 0.000258601
0.0525 0.63 0.0075 0.00334585 0.0403455 0.000178277
0.0575 0.63 0.0075 0.00315519 0.0401673 0.000154849
0.0625 0.63 0.0075 0.0029639 0.040923 0.000157697
0.0675 0.63 0.0075 0.00280507 0.0426582 0.000141069
0.0725 0.63 0.0075 0.00245997 0.0443126 9.34428e-05
0.0775 0.63 0.0075 0.00198856 0.0451726 5.19297e-05
0.0825 0.63 0.0075 0.00126802 0.0443474 6.33336e-05
0.0875 0.63 0.0075 0.000464855 0.0419711 0.000318674
0.0925 0.63 0.0075 -5.94447e-05 0.0317019 0.000957884
0.0975 0.63 0.0075 0.000144393 -0.0269675 0.00134214
0.0025 0.63 0.0125 0.000319059 -0.0235901 -0.00121994
0.0075 0.63 0.0125 0.00151582 0.0375851 -0.000755865
0.0125 0.63 0.0125 0.00210894 0.045971 -0.000276343
0.0175 0.63 0.0125 0.00255093 0.0475431 -8.02037e-05
0.0225 0.63 0.0125 0.00294419 0.0482403 1.94426e-05
0.0275 0.63 0.0125 0.00320878 0.047541 3.3355e-05
0.0325 0.63 0.0125 0.00336555 0.0462133 -3.91905e-05
0.0375 0.63 0.0125 0.0035208 0.0444725 -9.70865e-05
0.0425 0.63 0.0125 0.00357493 0.0426206 -0.000115083
0.0475 0.63 0.0125 0.00357353 0.0410883 -0.000130538
0.0525 0.63 0.0125 0.00344645 0.0401166 -0.000179059
0.0575 0.63 0.0125 0.00329894 0.0399443 -0.000235153
0.0625 0.63 0.0125 0.00309951 0.0407476 -0.000286665
0.0675 0.63 0.0125 0.00287426 0.0425036 -0.000343361
0.0725 0.63 0.0125 0.00243931 0.0442377 -0.000383083
0.0775 0.63 0.0125 0.00187454 0.045213 -0.000357401
0.0825 0.63 0.0125 0.00109252 0.0445358 -0.000296693
0.0875 0.63 0.0125 0.000283657 0.0423436 -0.000296855
0.0925 0.63 0.0125 -0.000157117 0.0321547 -0.000673783
0.0975 0.63 0.0125 0.000186578 -0.026834 -0.000927222
0.0025 0.63 0.0175 -0.000658645 -0.0769257 -0.000907469
0.0075 0.63 0.0175 -0.00133827 -0.0480888 -0.000406611
0.0125 0.63 0.0175 -0.0011597 -0.0399981 0.000172534
0.0175 0.63 0.0175 -0.000675348 -0.0339674 0.00048625
0.0225 0.63 0.0175 -7.97974e-06 -0.0294678 0.000636367
0.0275 0.63 0.0175 0.000838078 -0.0263923 0.000697757
0.0325 0.63 0.0175 0.00163847 -0.0243166 0.000699542
0.0375 0.63 0.0175 0.00236834 -0.0227606 0.000699985
0.0425 0.63 0.0175 0.00292519 -0.021478 0.00072096
0.0475 0.63 0.0175 0.00342158 -0.0209021 0.000746581
0.0525 0.63 0.0175 0.00380953 -0.0212081 0.00078149
0.0575 0.63 0.0175 0.00415137 -0.022003 0.000768182
0.0625 0.63 0.0175 0.00425116 -0.0227071 0.000666845
0.0675 0.63 0.0175 0.00424058 -0.0234961 0.000589372
0.0725 0.63 0.0175 0.00401324 -0.0250041 0.000548772
0.0775 0.63 0.0175 0.00371975 -0.0276979 0.000541179
0.0825 0.63 0.0175 0.00326001 -0.0323208 0.000486828
0.0875 0.63 0.0175 0.00281623 -0.039598 0.000332953
0.0925 0.63 0.0175 0.0021839 -0.0514283 -0.000233217
0.0975 0.63 0.0175 0.000723737 -0.0809554 -0.000637696
