# alphaMean.air  FACE_DATA 160
#  x  y  z  alphaMean.air
0.0025 0.63 0.00125 0.0412449
0.0075 0.63 0.00125 0.0337463
0.0125 0.63 0.00125 0.0372619
0.0175 0.63 0.00125 0.0395637
0.0225 0.63 0.00125 0.0417528
0.0275 0.63 0.00125 0.0435518
0.0325 0.63 0.00125 0.0451812
0.0375 0.63 0.00125 0.0464672
0.0425 0.63 0.00125 0.0474281
0.0475 0.63 0.00125 0.0481107
0.0525 0.63 0.00125 0.0484181
0.0575 0.63 0.00125 0.0484663
0.0625 0.63 0.00125 0.0477591
0.0675 0.63 0.00125 0.0463944
0.0725 0.63 0.00125 0.0450378
0.0775 0.63 0.00125 0.0435002
0.0825 0.63 0.00125 0.0421831
0.0875 0.63 0.00125 0.0399016
0.0925 0.63 0.00125 0.0370317
0.0975 0.63 0.00125 0.0427927
0.0025 0.63 0.00375 0.0430936
0.0075 0.63 0.00375 0.0592324
0.0125 0.63 0.00375 0.0526981
0.0175 0.63 0.00375 0.049895
0.0225 0.63 0.00375 0.0471029
0.0275 0.63 0.00375 0.0444328
0.0325 0.63 0.00375 0.0423694
0.0375 0.63 0.00375 0.0408207
0.0425 0.63 0.00375 0.0396438
0.0475 0.63 0.00375 0.0386378
0.0525 0.63 0.00375 0.0379634
0.0575 0.63 0.00375 0.0379324
0.0625 0.63 0.00375 0.03882
0.0675 0.63 0.00375 0.040352
0.0725 0.63 0.00375 0.0422525
0.0775 0.63 0.00375 0.0445713
0.0825 0.63 0.00375 0.0467002
0.0875 0.63 0.00375 0.049643
0.0925 0.63 0.00375 0.0551197
0.0975 0.63 0.00375 0.0433863
0.0025 0.63 0.00625 0.0395312
0.0075 0.63 0.00625 0.0457996
0.0125 0.63 0.00625 0.0422264
0.0175 0.63 0.00625 0.0433539
0.0225 0.63 0.00625 0.0449047
0.0275 0.63 0.00625 0.0457477
0.0325 0.63 0.00625 0.0465725
0.0375 0.63 0.00625 0.0472457
0.0425 0.63 0.00625 0.0477019
0.0475 0.63 0.00625 0.0480961
0.0525 0.63 0.00625 0.0483382
0.0575 0.63 0.00625 0.0482824
0.0625 0.63 0.00625 0.0480269
0.0675 0.63 0.00625 0.0476615
0.0725 0.63 0.00625 0.0468167
0.0775 0.63 0.00625 0.0459658
0.0825 0.63 0.00625 0.044273
0.0875 0.63 0.00625 0.0432372
0.0925 0.63 0.00625 0.0467083
0.0975 0.63 0.00625 0.0412419
0.0025 0.63 0.00875 0.042062
0.0075 0.63 0.00875 0.0469955
0.0125 0.63 0.00875 0.0440293
0.0175 0.63 0.00875 0.0442483
0.0225 0.63 0.00875 0.0443678
0.0275 0.63 0.00875 0.0440043
0.0325 0.63 0.00875 0.0439294
0.0375 0.63 0.00875 0.0438712
0.0425 0.63 0.00875 0.0438084
0.0475 0.63 0.00875 0.0438185
0.0525 0.63 0.00875 0.0438103
0.0575 0.63 0.00875 0.0437706
0.0625 0.63 0.00875 0.0437368
0.0675 0.63 0.00875 0.0437163
0.0725 0.63 0.00875 0.0437206
0.0775 0.63 0.00875 0.0440103
0.0825 0.63 0.00875 0.0439933
0.0875 0.63 0.00875 0.043857
0.0925 0.63 0.00875 0.0468057
0.0975 0.63 0.00875 0.0429791
0.0025 0.63 0.01125 0.0420198
0.0075 0.63 0.01125 0.047223
0.0125 0.63 0.01125 0.0442907
0.0175 0.63 0.01125 0.0444713
0.0225 0.63 0.01125 0.0446199
0.0275 0.63 0.01125 0.0441844
0.0325 0.63 0.01125 0.0440596
0.0375 0.63 0.01125 0.0440884
0.0425 0.63 0.01125 0.0440786
0.0475 0.63 0.01125 0.044095
0.0525 0.63 0.01125 0.0440609
0.0575 0.63 0.01125 0.0439858
0.0625 0.63 0.01125 0.0438835
0.0675 0.63 0.01125 0.0437878
0.0725 0.63 0.01125 0.0438038
0.0775 0.63 0.01125 0.0440678
0.0825 0.63 0.01125 0.0440064
0.0875 0.63 0.01125 0.0439966
0.0925 0.63 0.01125 0.0470557
0.0975 0.63 0.01125 0.0429744
0.0025 0.63 0.01375 0.0394859
0.0075 0.63 0.01375 0.0455691
0.0125 0.63 0.01375 0.0419609
0.0175 0.63 0.01375 0.043194
0.0225 0.63 0.01375 0.0447308
0.0275 0.63 0.01375 0.0455365
0.0325 0.63 0.01375 0.0463878
0.0375 0.63 0.01375 0.0471219
0.0425 0.63 0.01375 0.0474972
0.0475 0.63 0.01375 0.0478114
0.0525 0.63 0.01375 0.0479472
0.0575 0.63 0.01375 0.0479632
0.0625 0.63 0.01375 0.0476987
0.0675 0.63 0.01375 0.0472382
0.0725 0.63 0.01375 0.0464576
0.0775 0.63 0.01375 0.0455792
0.0825 0.63 0.01375 0.0440206
0.0875 0.63 0.01375 0.0428778
0.0925 0.63 0.01375 0.0463266
0.0975 0.63 0.01375 0.0413823
0.0025 0.63 0.01625 0.0433874
0.0075 0.63 0.01625 0.0590422
0.0125 0.63 0.01625 0.052944
0.0175 0.63 0.01625 0.0499895
0.0225 0.63 0.01625 0.0470114
0.0275 0.63 0.01625 0.0443921
0.0325 0.63 0.01625 0.0423614
0.0375 0.63 0.01625 0.0408173
0.0425 0.63 0.01625 0.0395746
0.0475 0.63 0.01625 0.0386341
0.0525 0.63 0.01625 0.0381852
0.0575 0.63 0.01625 0.0382891
0.0625 0.63 0.01625 0.0391743
0.0675 0.63 0.01625 0.0406971
0.0725 0.63 0.01625 0.0426269
0.0775 0.63 0.01625 0.0449968
0.0825 0.63 0.01625 0.0472197
0.0875 0.63 0.01625 0.0500786
0.0925 0.63 0.01625 0.0555347
0.0975 0.63 0.01625 0.0434017
0.0025 0.63 0.01875 0.0412363
0.0075 0.63 0.01875 0.0336826
0.0125 0.63 0.01875 0.0368498
0.0175 0.63 0.01875 0.0394712
0.0225 0.63 0.01875 0.0418377
0.0275 0.63 0.01875 0.0436249
0.0325 0.63 0.01875 0.0452898
0.0375 0.63 0.01875 0.04637
0.0425 0.63 0.01875 0.0475035
0.0475 0.63 0.01875 0.0482099
0.0525 0.63 0.01875 0.0484879
0.0575 0.63 0.01875 0.0482528
0.0625 0.63 0.01875 0.0475309
0.0675 0.63 0.01875 0.0462943
0.0725 0.63 0.01875 0.0448536
0.0775 0.63 0.01875 0.0432042
0.0825 0.63 0.01875 0.04185
0.0875 0.63 0.01875 0.0395745
0.0925 0.63 0.01875 0.0369136
0.0975 0.63 0.01875 0.0429845
