# alphaMean.water  FACE_DATA 160
#  x  y  z  alphaMean.water
0.0025 0.63 0.00125 0.958755
0.0075 0.63 0.00125 0.966254
0.0125 0.63 0.00125 0.962738
0.0175 0.63 0.00125 0.960436
0.0225 0.63 0.00125 0.958247
0.0275 0.63 0.00125 0.956448
0.0325 0.63 0.00125 0.954819
0.0375 0.63 0.00125 0.953533
0.0425 0.63 0.00125 0.952572
0.0475 0.63 0.00125 0.951889
0.0525 0.63 0.00125 0.951582
0.0575 0.63 0.00125 0.951534
0.0625 0.63 0.00125 0.952241
0.0675 0.63 0.00125 0.953606
0.0725 0.63 0.00125 0.954962
0.0775 0.63 0.00125 0.9565
0.0825 0.63 0.00125 0.957817
0.0875 0.63 0.00125 0.960098
0.0925 0.63 0.00125 0.962968
0.0975 0.63 0.00125 0.957207
0.0025 0.63 0.00375 0.956906
0.0075 0.63 0.00375 0.940768
0.0125 0.63 0.00375 0.947302
0.0175 0.63 0.00375 0.950105
0.0225 0.63 0.00375 0.952897
0.0275 0.63 0.00375 0.955567
0.0325 0.63 0.00375 0.957631
0.0375 0.63 0.00375 0.959179
0.0425 0.63 0.00375 0.960356
0.0475 0.63 0.00375 0.961362
0.0525 0.63 0.00375 0.962037
0.0575 0.63 0.00375 0.962068
0.0625 0.63 0.00375 0.96118
0.0675 0.63 0.00375 0.959648
0.0725 0.63 0.00375 0.957748
0.0775 0.63 0.00375 0.955429
0.0825 0.63 0.00375 0.9533
0.0875 0.63 0.00375 0.950357
0.0925 0.63 0.00375 0.94488
0.0975 0.63 0.00375 0.956614
0.0025 0.63 0.00625 0.960469
0.0075 0.63 0.00625 0.9542
0.0125 0.63 0.00625 0.957774
0.0175 0.63 0.00625 0.956646
0.0225 0.63 0.00625 0.955095
0.0275 0.63 0.00625 0.954252
0.0325 0.63 0.00625 0.953428
0.0375 0.63 0.00625 0.952754
0.0425 0.63 0.00625 0.952298
0.0475 0.63 0.00625 0.951904
0.0525 0.63 0.00625 0.951662
0.0575 0.63 0.00625 0.951718
0.0625 0.63 0.00625 0.951973
0.0675 0.63 0.00625 0.952338
0.0725 0.63 0.00625 0.953183
0.0775 0.63 0.00625 0.954034
0.0825 0.63 0.00625 0.955727
0.0875 0.63 0.00625 0.956763
0.0925 0.63 0.00625 0.953292
0.0975 0.63 0.00625 0.958758
0.0025 0.63 0.00875 0.957938
0.0075 0.63 0.00875 0.953005
0.0125 0.63 0.00875 0.955971
0.0175 0.63 0.00875 0.955752
0.0225 0.63 0.00875 0.955632
0.0275 0.63 0.00875 0.955996
0.0325 0.63 0.00875 0.956071
0.0375 0.63 0.00875 0.956129
0.0425 0.63 0.00875 0.956192
0.0475 0.63 0.00875 0.956181
0.0525 0.63 0.00875 0.95619
0.0575 0.63 0.00875 0.956229
0.0625 0.63 0.00875 0.956263
0.0675 0.63 0.00875 0.956284
0.0725 0.63 0.00875 0.956279
0.0775 0.63 0.00875 0.95599
0.0825 0.63 0.00875 0.956007
0.0875 0.63 0.00875 0.956143
0.0925 0.63 0.00875 0.953194
0.0975 0.63 0.00875 0.957021
0.0025 0.63 0.01125 0.95798
0.0075 0.63 0.01125 0.952777
0.0125 0.63 0.01125 0.955709
0.0175 0.63 0.01125 0.955529
0.0225 0.63 0.01125 0.95538
0.0275 0.63 0.01125 0.955816
0.0325 0.63 0.01125 0.95594
0.0375 0.63 0.01125 0.955912
0.0425 0.63 0.01125 0.955921
0.0475 0.63 0.01125 0.955905
0.0525 0.63 0.01125 0.955939
0.0575 0.63 0.01125 0.956014
0.0625 0.63 0.01125 0.956116
0.0675 0.63 0.01125 0.956212
0.0725 0.63 0.01125 0.956196
0.0775 0.63 0.01125 0.955932
0.0825 0.63 0.01125 0.955994
0.0875 0.63 0.01125 0.956003
0.0925 0.63 0.01125 0.952944
0.0975 0.63 0.01125 0.957026
0.0025 0.63 0.01375 0.960514
0.0075 0.63 0.01375 0.954431
0.0125 0.63 0.01375 0.958039
0.0175 0.63 0.01375 0.956806
0.0225 0.63 0.01375 0.955269
0.0275 0.63 0.01375 0.954464
0.0325 0.63 0.01375 0.953612
0.0375 0.63 0.01375 0.952878
0.0425 0.63 0.01375 0.952503
0.0475 0.63 0.01375 0.952189
0.0525 0.63 0.01375 0.952053
0.0575 0.63 0.01375 0.952037
0.0625 0.63 0.01375 0.952301
0.0675 0.63 0.01375 0.952762
0.0725 0.63 0.01375 0.953542
0.0775 0.63 0.01375 0.954421
0.0825 0.63 0.01375 0.955979
0.0875 0.63 0.01375 0.957122
0.0925 0.63 0.01375 0.953673
0.0975 0.63 0.01375 0.958618
0.0025 0.63 0.01625 0.956613
0.0075 0.63 0.01625 0.940958
0.0125 0.63 0.01625 0.947056
0.0175 0.63 0.01625 0.950011
0.0225 0.63 0.01625 0.952989
0.0275 0.63 0.01625 0.955608
0.0325 0.63 0.01625 0.957639
0.0375 0.63 0.01625 0.959183
0.0425 0.63 0.01625 0.960425
0.0475 0.63 0.01625 0.961366
0.0525 0.63 0.01625 0.961815
0.0575 0.63 0.01625 0.961711
0.0625 0.63 0.01625 0.960826
0.0675 0.63 0.01625 0.959303
0.0725 0.63 0.01625 0.957373
0.0775 0.63 0.01625 0.955003
0.0825 0.63 0.01625 0.95278
0.0875 0.63 0.01625 0.949921
0.0925 0.63 0.01625 0.944465
0.0975 0.63 0.01625 0.956598
0.0025 0.63 0.01875 0.958764
0.0075 0.63 0.01875 0.966317
0.0125 0.63 0.01875 0.96315
0.0175 0.63 0.01875 0.960529
0.0225 0.63 0.01875 0.958162
0.0275 0.63 0.01875 0.956375
0.0325 0.63 0.01875 0.95471
0.0375 0.63 0.01875 0.95363
0.0425 0.63 0.01875 0.952497
0.0475 0.63 0.01875 0.95179
0.0525 0.63 0.01875 0.951512
0.0575 0.63 0.01875 0.951747
0.0625 0.63 0.01875 0.952469
0.0675 0.63 0.01875 0.953706
0.0725 0.63 0.01875 0.955146
0.0775 0.63 0.01875 0.956796
0.0825 0.63 0.01875 0.95815
0.0875 0.63 0.01875 0.960425
0.0925 0.63 0.01875 0.963086
0.0975 0.63 0.01875 0.957015
