# alphaMean.water  FACE_DATA 160
#  x  y  z  alphaMean.water
0.0025 0.08 0.00125 0.991149
0.0075 0.08 0.00125 0.994471
0.0125 0.08 0.00125 0.993445
0.0175 0.08 0.00125 0.98771
0.0225 0.08 0.00125 0.976324
0.0275 0.08 0.00125 0.961048
0.0325 0.08 0.00125 0.94657
0.0375 0.08 0.00125 0.946716
0.0425 0.08 0.00125 0.951741
0.0475 0.08 0.00125 0.95319
0.0525 0.08 0.00125 0.953125
0.0575 0.08 0.00125 0.953408
0.0625 0.08 0.00125 0.953793
0.0675 0.08 0.00125 0.960777
0.0725 0.08 0.00125 0.972674
0.0775 0.08 0.00125 0.983497
0.0825 0.08 0.00125 0.991624
0.0875 0.08 0.00125 0.995272
0.0925 0.08 0.00125 0.995098
0.0975 0.08 0.00125 0.992273
0.0025 0.08 0.00375 0.979787
0.0075 0.08 0.00375 0.966021
0.0125 0.08 0.00375 0.971869
0.0175 0.08 0.00375 0.977616
0.0225 0.08 0.00375 0.974028
0.0275 0.08 0.00375 0.965362
0.0325 0.08 0.00375 0.961826
0.0375 0.08 0.00375 0.964123
0.0425 0.08 0.00375 0.965788
0.0475 0.08 0.00375 0.966201
0.0525 0.08 0.00375 0.966371
0.0575 0.08 0.00375 0.966157
0.0625 0.08 0.00375 0.968117
0.0675 0.08 0.00375 0.971617
0.0725 0.08 0.00375 0.977181
0.0775 0.08 0.00375 0.982545
0.0825 0.08 0.00375 0.983696
0.0875 0.08 0.00375 0.976951
0.0925 0.08 0.00375 0.968213
0.0975 0.08 0.00375 0.980006
0.0025 0.08 0.00625 0.979032
0.0075 0.08 0.00625 0.967287
0.0125 0.08 0.00625 0.975906
0.0175 0.08 0.00625 0.979363
0.0225 0.08 0.00625 0.974489
0.0275 0.08 0.00625 0.965758
0.0325 0.08 0.00625 0.959265
0.0375 0.08 0.00625 0.960628
0.0425 0.08 0.00625 0.962226
0.0475 0.08 0.00625 0.962633
0.0525 0.08 0.00625 0.962868
0.0575 0.08 0.00625 0.962907
0.0625 0.08 0.00625 0.964835
0.0675 0.08 0.00625 0.969741
0.0725 0.08 0.00625 0.976609
0.0775 0.08 0.00625 0.98174
0.0825 0.08 0.00625 0.981974
0.0875 0.08 0.00625 0.975767
0.0925 0.08 0.00625 0.966508
0.0975 0.08 0.00625 0.977948
0.0025 0.08 0.00875 0.982026
0.0075 0.08 0.00875 0.978421
0.0125 0.08 0.00875 0.984995
0.0175 0.08 0.00875 0.984748
0.0225 0.08 0.00875 0.976466
0.0275 0.08 0.00875 0.964724
0.0325 0.08 0.00875 0.953808
0.0375 0.08 0.00875 0.95412
0.0425 0.08 0.00875 0.956291
0.0475 0.08 0.00875 0.957332
0.0525 0.08 0.00875 0.957872
0.0575 0.08 0.00875 0.957961
0.0625 0.08 0.00875 0.959393
0.0675 0.08 0.00875 0.96648
0.0725 0.08 0.00875 0.976841
0.0775 0.08 0.00875 0.985142
0.0825 0.08 0.00875 0.987872
0.0875 0.08 0.00875 0.984459
0.0925 0.08 0.00875 0.976453
0.0975 0.08 0.00875 0.980224
0.0025 0.08 0.01125 0.982097
0.0075 0.08 0.01125 0.978428
0.0125 0.08 0.01125 0.985668
0.0175 0.08 0.01125 0.985033
0.0225 0.08 0.01125 0.976583
0.0275 0.08 0.01125 0.964519
0.0325 0.08 0.01125 0.953875
0.0375 0.08 0.01125 0.954324
0.0425 0.08 0.01125 0.956565
0.0475 0.08 0.01125 0.958131
0.0525 0.08 0.01125 0.959052
0.0575 0.08 0.01125 0.958844
0.0625 0.08 0.01125 0.959709
0.0675 0.08 0.01125 0.966312
0.0725 0.08 0.01125 0.976383
0.0775 0.08 0.01125 0.983527
0.0825 0.08 0.01125 0.986036
0.0875 0.08 0.01125 0.983943
0.0925 0.08 0.01125 0.977287
0.0975 0.08 0.01125 0.979829
0.0025 0.08 0.01375 0.979772
0.0075 0.08 0.01375 0.96851
0.0125 0.08 0.01375 0.977709
0.0175 0.08 0.01375 0.980314
0.0225 0.08 0.01375 0.975205
0.0275 0.08 0.01375 0.96702
0.0325 0.08 0.01375 0.961426
0.0375 0.08 0.01375 0.96231
0.0425 0.08 0.01375 0.963628
0.0475 0.08 0.01375 0.96499
0.0525 0.08 0.01375 0.965558
0.0575 0.08 0.01375 0.964911
0.0625 0.08 0.01375 0.965254
0.0675 0.08 0.01375 0.969309
0.0725 0.08 0.01375 0.97513
0.0775 0.08 0.01375 0.978171
0.0825 0.08 0.01375 0.97739
0.0875 0.08 0.01375 0.972904
0.0925 0.08 0.01375 0.965737
0.0975 0.08 0.01375 0.976488
0.0025 0.08 0.01625 0.98121
0.0075 0.08 0.01625 0.96785
0.0125 0.08 0.01625 0.976544
0.0175 0.08 0.01625 0.979511
0.0225 0.08 0.01625 0.975337
0.0275 0.08 0.01625 0.968355
0.0325 0.08 0.01625 0.966371
0.0375 0.08 0.01625 0.967434
0.0425 0.08 0.01625 0.968175
0.0475 0.08 0.01625 0.969233
0.0525 0.08 0.01625 0.969396
0.0575 0.08 0.01625 0.968061
0.0625 0.08 0.01625 0.967643
0.0675 0.08 0.01625 0.96969
0.0725 0.08 0.01625 0.974554
0.0775 0.08 0.01625 0.978753
0.0825 0.08 0.01625 0.977706
0.0875 0.08 0.01625 0.970029
0.0925 0.08 0.01625 0.962701
0.0975 0.08 0.01625 0.977419
0.0025 0.08 0.01875 0.991341
0.0075 0.08 0.01875 0.993589
0.0125 0.08 0.01875 0.992391
0.0175 0.08 0.01875 0.986195
0.0225 0.08 0.01875 0.974912
0.0275 0.08 0.01875 0.960739
0.0325 0.08 0.01875 0.947075
0.0375 0.08 0.01875 0.950574
0.0425 0.08 0.01875 0.95422
0.0475 0.08 0.01875 0.955893
0.0525 0.08 0.01875 0.955938
0.0575 0.08 0.01875 0.953305
0.0625 0.08 0.01875 0.951695
0.0675 0.08 0.01875 0.95844
0.0725 0.08 0.01875 0.971381
0.0775 0.08 0.01875 0.982683
0.0825 0.08 0.01875 0.990983
0.0875 0.08 0.01875 0.993946
0.0925 0.08 0.01875 0.993483
0.0975 0.08 0.01875 0.990469
