# alphaMean.air  FACE_DATA 160
#  x  y  z  alphaMean.air
0.0025 0.08 0.00125 0.00885106
0.0075 0.08 0.00125 0.00552887
0.0125 0.08 0.00125 0.00655527
0.0175 0.08 0.00125 0.0122902
0.0225 0.08 0.00125 0.0236759
0.0275 0.08 0.00125 0.0389522
0.0325 0.08 0.00125 0.0534301
0.0375 0.08 0.00125 0.0532835
0.0425 0.08 0.00125 0.0482592
0.0475 0.08 0.00125 0.0468098
0.0525 0.08 0.00125 0.0468751
0.0575 0.08 0.00125 0.0465919
0.0625 0.08 0.00125 0.0462073
0.0675 0.08 0.00125 0.0392226
0.0725 0.08 0.00125 0.0273259
0.0775 0.08 0.00125 0.0165025
0.0825 0.08 0.00125 0.00837553
0.0875 0.08 0.00125 0.00472841
0.0925 0.08 0.00125 0.0049025
0.0975 0.08 0.00125 0.00772723
0.0025 0.08 0.00375 0.0202126
0.0075 0.08 0.00375 0.0339787
0.0125 0.08 0.00375 0.0281311
0.0175 0.08 0.00375 0.0223842
0.0225 0.08 0.00375 0.0259715
0.0275 0.08 0.00375 0.0346379
0.0325 0.08 0.00375 0.0381738
0.0375 0.08 0.00375 0.0358774
0.0425 0.08 0.00375 0.0342118
0.0475 0.08 0.00375 0.0337986
0.0525 0.08 0.00375 0.0336286
0.0575 0.08 0.00375 0.0338432
0.0625 0.08 0.00375 0.0318829
0.0675 0.08 0.00375 0.0283825
0.0725 0.08 0.00375 0.0228191
0.0775 0.08 0.00375 0.0174552
0.0825 0.08 0.00375 0.0163044
0.0875 0.08 0.00375 0.0230493
0.0925 0.08 0.00375 0.0317872
0.0975 0.08 0.00375 0.0199938
0.0025 0.08 0.00625 0.020968
0.0075 0.08 0.00625 0.0327125
0.0125 0.08 0.00625 0.0240939
0.0175 0.08 0.00625 0.020637
0.0225 0.08 0.00625 0.025511
0.0275 0.08 0.00625 0.0342423
0.0325 0.08 0.00625 0.0407355
0.0375 0.08 0.00625 0.0393716
0.0425 0.08 0.00625 0.0377743
0.0475 0.08 0.00625 0.0373672
0.0525 0.08 0.00625 0.0371321
0.0575 0.08 0.00625 0.0370927
0.0625 0.08 0.00625 0.0351647
0.0675 0.08 0.00625 0.030259
0.0725 0.08 0.00625 0.0233909
0.0775 0.08 0.00625 0.0182601
0.0825 0.08 0.00625 0.0180255
0.0875 0.08 0.00625 0.0242334
0.0925 0.08 0.00625 0.0334916
0.0975 0.08 0.00625 0.0220523
0.0025 0.08 0.00875 0.0179738
0.0075 0.08 0.00875 0.0215788
0.0125 0.08 0.00875 0.0150047
0.0175 0.08 0.00875 0.0152517
0.0225 0.08 0.00875 0.0235336
0.0275 0.08 0.00875 0.0352759
0.0325 0.08 0.00875 0.0461924
0.0375 0.08 0.00875 0.0458803
0.0425 0.08 0.00875 0.0437093
0.0475 0.08 0.00875 0.0426684
0.0525 0.08 0.00875 0.0421279
0.0575 0.08 0.00875 0.0420389
0.0625 0.08 0.00875 0.0406066
0.0675 0.08 0.00875 0.0335195
0.0725 0.08 0.00875 0.0231588
0.0775 0.08 0.00875 0.0148582
0.0825 0.08 0.00875 0.0121275
0.0875 0.08 0.00875 0.0155409
0.0925 0.08 0.00875 0.0235469
0.0975 0.08 0.00875 0.0197763
0.0025 0.08 0.01125 0.0179033
0.0075 0.08 0.01125 0.0215718
0.0125 0.08 0.01125 0.014332
0.0175 0.08 0.01125 0.0149667
0.0225 0.08 0.01125 0.0234167
0.0275 0.08 0.01125 0.0354812
0.0325 0.08 0.01125 0.0461249
0.0375 0.08 0.01125 0.0456758
0.0425 0.08 0.01125 0.043435
0.0475 0.08 0.01125 0.0418689
0.0525 0.08 0.01125 0.0409481
0.0575 0.08 0.01125 0.0411561
0.0625 0.08 0.01125 0.0402912
0.0675 0.08 0.01125 0.0336879
0.0725 0.08 0.01125 0.0236167
0.0775 0.08 0.01125 0.0164733
0.0825 0.08 0.01125 0.0139644
0.0875 0.08 0.01125 0.0160575
0.0925 0.08 0.01125 0.0227125
0.0975 0.08 0.01125 0.0201714
0.0025 0.08 0.01375 0.0202275
0.0075 0.08 0.01375 0.0314901
0.0125 0.08 0.01375 0.0222914
0.0175 0.08 0.01375 0.0196857
0.0225 0.08 0.01375 0.0247946
0.0275 0.08 0.01375 0.0329798
0.0325 0.08 0.01375 0.0385739
0.0375 0.08 0.01375 0.0376902
0.0425 0.08 0.01375 0.036372
0.0475 0.08 0.01375 0.0350103
0.0525 0.08 0.01375 0.0344421
0.0575 0.08 0.01375 0.0350887
0.0625 0.08 0.01375 0.0347465
0.0675 0.08 0.01375 0.0306911
0.0725 0.08 0.01375 0.0248696
0.0775 0.08 0.01375 0.021829
0.0825 0.08 0.01375 0.0226104
0.0875 0.08 0.01375 0.0270962
0.0925 0.08 0.01375 0.0342628
0.0975 0.08 0.01375 0.0235117
0.0025 0.08 0.01625 0.0187901
0.0075 0.08 0.01625 0.0321495
0.0125 0.08 0.01625 0.0234557
0.0175 0.08 0.01625 0.0204889
0.0225 0.08 0.01625 0.0246629
0.0275 0.08 0.01625 0.0316448
0.0325 0.08 0.01625 0.0336289
0.0375 0.08 0.01625 0.0325664
0.0425 0.08 0.01625 0.0318252
0.0475 0.08 0.01625 0.0307665
0.0525 0.08 0.01625 0.0306041
0.0575 0.08 0.01625 0.0319394
0.0625 0.08 0.01625 0.0323575
0.0675 0.08 0.01625 0.0303103
0.0725 0.08 0.01625 0.0254461
0.0775 0.08 0.01625 0.0212471
0.0825 0.08 0.01625 0.022294
0.0875 0.08 0.01625 0.0299713
0.0925 0.08 0.01625 0.0372987
0.0975 0.08 0.01625 0.0225815
0.0025 0.08 0.01875 0.0086593
0.0075 0.08 0.01875 0.00641128
0.0125 0.08 0.01875 0.00760861
0.0175 0.08 0.01875 0.0138054
0.0225 0.08 0.01875 0.025088
0.0275 0.08 0.01875 0.0392609
0.0325 0.08 0.01875 0.0529254
0.0375 0.08 0.01875 0.0494257
0.0425 0.08 0.01875 0.0457802
0.0475 0.08 0.01875 0.0441075
0.0525 0.08 0.01875 0.0440618
0.0575 0.08 0.01875 0.0466946
0.0625 0.08 0.01875 0.048305
0.0675 0.08 0.01875 0.04156
0.0725 0.08 0.01875 0.0286192
0.0775 0.08 0.01875 0.0173173
0.0825 0.08 0.01875 0.00901661
0.0875 0.08 0.01875 0.00605443
0.0925 0.08 0.01875 0.00651726
0.0975 0.08 0.01875 0.00953127
