# pMean  FACE_DATA 160
#  x  y  z  pMean
0.0025 0.08 0.00125 108574
0.0075 0.08 0.00125 108573
0.0125 0.08 0.00125 108572
0.0175 0.08 0.00125 108571
0.0225 0.08 0.00125 108570
0.0275 0.08 0.00125 108568
0.0325 0.08 0.00125 108567
0.0375 0.08 0.00125 108565
0.0425 0.08 0.00125 108565
0.0475 0.08 0.00125 108564
0.0525 0.08 0.00125 108564
0.0575 0.08 0.00125 108564
0.0625 0.08 0.00125 108565
0.0675 0.08 0.00125 108566
0.0725 0.08 0.00125 108567
0.0775 0.08 0.00125 108569
0.0825 0.08 0.00125 108570
0.0875 0.08 0.00125 108571
0.0925 0.08 0.00125 108573
0.0975 0.08 0.00125 108574
0.0025 0.08 0.00375 108574
0.0075 0.08 0.00375 108573
0.0125 0.08 0.00375 108572
0.0175 0.08 0.00375 108571
0.0225 0.08 0.00375 108569
0.0275 0.08 0.00375 108568
0.0325 0.08 0.00375 108566
0.0375 0.08 0.00375 108565
0.0425 0.08 0.00375 108565
0.0475 0.08 0.00375 108564
0.0525 0.08 0.00375 108564
0.0575 0.08 0.00375 108564
0.0625 0.08 0.00375 108565
0.0675 0.08 0.00375 108566
0.0725 0.08 0.00375 108567
0.0775 0.08 0.00375 108568
0.0825 0.08 0.00375 108570
0.0875 0.08 0.00375 108571
0.0925 0.08 0.00375 108573
0.0975 0.08 0.00375 108574
0.0025 0.08 0.00625 108574
0.0075 0.08 0.00625 108573
0.0125 0.08 0.00625 108572
0.0175 0.08 0.00625 108571
0.0225 0.08 0.00625 108569
0.0275 0.08 0.00625 108568
0.0325 0.08 0.00625 108566
0.0375 0.08 0.00625 108565
0.0425 0.08 0.00625 108564
0.0475 0.08 0.00625 108564
0.0525 0.08 0.00625 108564
0.0575 0.08 0.00625 108564
0.0625 0.08 0.00625 108565
0.0675 0.08 0.00625 108566
0.0725 0.08 0.00625 108567
0.0775 0.08 0.00625 108568
0.0825 0.08 0.00625 108570
0.0875 0.08 0.00625 108571
0.0925 0.08 0.00625 108572
0.0975 0.08 0.00625 108574
0.0025 0.08 0.00875 108574
0.0075 0.08 0.00875 108573
0.0125 0.08 0.00875 108572
0.0175 0.08 0.00875 108571
0.0225 0.08 0.00875 108569
0.0275 0.08 0.00875 108568
0.0325 0.08 0.00875 108566
0.0375 0.08 0.00875 108565
0.0425 0.08 0.00875 108564
0.0475 0.08 0.00875 108564
0.0525 0.08 0.00875 108564
0.0575 0.08 0.00875 108564
0.0625 0.08 0.00875 108565
0.0675 0.08 0.00875 108566
0.0725 0.08 0.00875 108567
0.0775 0.08 0.00875 108568
0.0825 0.08 0.00875 108570
0.0875 0.08 0.00875 108571
0.0925 0.08 0.00875 108572
0.0975 0.08 0.00875 108574
0.0025 0.08 0.01125 108574
0.0075 0.08 0.01125 108573
0.0125 0.08 0.01125 108572
0.0175 0.08 0.01125 108571
0.0225 0.08 0.01125 108569
0.0275 0.08 0.01125 108568
0.0325 0.08 0.01125 108567
0.0375 0.08 0.01125 108565
0.0425 0.08 0.01125 108565
0.0475 0.08 0.01125 108564
0.0525 0.08 0.01125 108564
0.0575 0.08 0.01125 108564
0.0625 0.08 0.01125 108565
0.0675 0.08 0.01125 108566
0.0725 0.08 0.01125 108567
0.0775 0.08 0.01125 108568
0.0825 0.08 0.01125 108570
0.0875 0.08 0.01125 108571
0.0925 0.08 0.01125 108572
0.0975 0.08 0.01125 108574
0.0025 0.08 0.01375 108574
0.0075 0.08 0.01375 108573
0.0125 0.08 0.01375 108572
0.0175 0.08 0.01375 108571
0.0225 0.08 0.01375 108570
0.0275 0.08 0.01375 108568
0.0325 0.08 0.01375 108567
0.0375 0.08 0.01375 108565
0.0425 0.08 0.01375 108565
0.0475 0.08 0.01375 108564
0.0525 0.08 0.01375 108564
0.0575 0.08 0.01375 108564
0.0625 0.08 0.01375 108565
0.0675 0.08 0.01375 108566
0.0725 0.08 0.01375 108567
0.0775 0.08 0.01375 108568
0.0825 0.08 0.01375 108570
0.0875 0.08 0.01375 108571
0.0925 0.08 0.01375 108572
0.0975 0.08 0.01375 108574
0.0025 0.08 0.01625 108574
0.0075 0.08 0.01625 108573
0.0125 0.08 0.01625 108572
0.0175 0.08 0.01625 108571
0.0225 0.08 0.01625 108570
0.0275 0.08 0.01625 108568
0.0325 0.08 0.01625 108567
0.0375 0.08 0.01625 108565
0.0425 0.08 0.01625 108565
0.0475 0.08 0.01625 108564
0.0525 0.08 0.01625 108564
0.0575 0.08 0.01625 108564
0.0625 0.08 0.01625 108565
0.0675 0.08 0.01625 108566
0.0725 0.08 0.01625 108567
0.0775 0.08 0.01625 108568
0.0825 0.08 0.01625 108570
0.0875 0.08 0.01625 108571
0.0925 0.08 0.01625 108572
0.0975 0.08 0.01625 108574
0.0025 0.08 0.01875 108574
0.0075 0.08 0.01875 108573
0.0125 0.08 0.01875 108572
0.0175 0.08 0.01875 108571
0.0225 0.08 0.01875 108570
0.0275 0.08 0.01875 108568
0.0325 0.08 0.01875 108567
0.0375 0.08 0.01875 108565
0.0425 0.08 0.01875 108565
0.0475 0.08 0.01875 108564
0.0525 0.08 0.01875 108564
0.0575 0.08 0.01875 108564
0.0625 0.08 0.01875 108565
0.0675 0.08 0.01875 108566
0.0725 0.08 0.01875 108567
0.0775 0.08 0.01875 108568
0.0825 0.08 0.01875 108570
0.0875 0.08 0.01875 108571
0.0925 0.08 0.01875 108573
0.0975 0.08 0.01875 108574
