# pMean  FACE_DATA 160
#  x  y  z  pMean
0.0025 0.63 0.00125 103438
0.0075 0.63 0.00125 103438
0.0125 0.63 0.00125 103438
0.0175 0.63 0.00125 103438
0.0225 0.63 0.00125 103438
0.0275 0.63 0.00125 103438
0.0325 0.63 0.00125 103438
0.0375 0.63 0.00125 103438
0.0425 0.63 0.00125 103438
0.0475 0.63 0.00125 103438
0.0525 0.63 0.00125 103438
0.0575 0.63 0.00125 103438
0.0625 0.63 0.00125 103438
0.0675 0.63 0.00125 103438
0.0725 0.63 0.00125 103438
0.0775 0.63 0.00125 103438
0.0825 0.63 0.00125 103438
0.0875 0.63 0.00125 103438
0.0925 0.63 0.00125 103438
0.0975 0.63 0.00125 103438
0.0025 0.63 0.00375 103438
0.0075 0.63 0.00375 103438
0.0125 0.63 0.00375 103438
0.0175 0.63 0.00375 103438
0.0225 0.63 0.00375 103438
0.0275 0.63 0.00375 103438
0.0325 0.63 0.00375 103438
0.0375 0.63 0.00375 103438
0.0425 0.63 0.00375 103438
0.0475 0.63 0.00375 103438
0.0525 0.63 0.00375 103438
0.0575 0.63 0.00375 103438
0.0625 0.63 0.00375 103438
0.0675 0.63 0.00375 103438
0.0725 0.63 0.00375 103438
0.0775 0.63 0.00375 103438
0.0825 0.63 0.00375 103438
0.0875 0.63 0.00375 103438
0.0925 0.63 0.00375 103438
0.0975 0.63 0.00375 103438
0.0025 0.63 0.00625 103438
0.0075 0.63 0.00625 103438
0.0125 0.63 0.00625 103438
0.0175 0.63 0.00625 103438
0.0225 0.63 0.00625 103438
0.0275 0.63 0.00625 103438
0.0325 0.63 0.00625 103438
0.0375 0.63 0.00625 103438
0.0425 0.63 0.00625 103438
0.0475 0.63 0.00625 103438
0.0525 0.63 0.00625 103438
0.0575 0.63 0.00625 103438
0.0625 0.63 0.00625 103438
0.0675 0.63 0.00625 103438
0.0725 0.63 0.00625 103438
0.0775 0.63 0.00625 103438
0.0825 0.63 0.00625 103438
0.0875 0.63 0.00625 103438
0.0925 0.63 0.00625 103438
0.0975 0.63 0.00625 103438
0.0025 0.63 0.00875 103438
0.0075 0.63 0.00875 103438
0.0125 0.63 0.00875 103438
0.0175 0.63 0.00875 103438
0.0225 0.63 0.00875 103438
0.0275 0.63 0.00875 103438
0.0325 0.63 0.00875 103438
0.0375 0.63 0.00875 103438
0.0425 0.63 0.00875 103438
0.0475 0.63 0.00875 103438
0.0525 0.63 0.00875 103438
0.0575 0.63 0.00875 103438
0.0625 0.63 0.00875 103438
0.0675 0.63 0.00875 103438
0.0725 0.63 0.00875 103438
0.0775 0.63 0.00875 103438
0.0825 0.63 0.00875 103438
0.0875 0.63 0.00875 103438
0.0925 0.63 0.00875 103438
0.0975 0.63 0.00875 103438
0.0025 0.63 0.01125 103438
0.0075 0.63 0.01125 103438
0.0125 0.63 0.01125 103438
0.0175 0.63 0.01125 103438
0.0225 0.63 0.01125 103438
0.0275 0.63 0.01125 103438
0.0325 0.63 0.01125 103438
0.0375 0.63 0.01125 103438
0.0425 0.63 0.01125 103438
0.0475 0.63 0.01125 103438
0.0525 0.63 0.01125 103438
0.0575 0.63 0.01125 103438
0.0625 0.63 0.01125 103438
0.0675 0.63 0.01125 103438
0.0725 0.63 0.01125 103438
0.0775 0.63 0.01125 103438
0.0825 0.63 0.01125 103438
0.0875 0.63 0.01125 103438
0.0925 0.63 0.01125 103438
0.0975 0.63 0.01125 103438
0.0025 0.63 0.01375 103438
0.0075 0.63 0.01375 103438
0.0125 0.63 0.01375 103438
0.0175 0.63 0.01375 103438
0.0225 0.63 0.01375 103438
0.0275 0.63 0.01375 103438
0.0325 0.63 0.01375 103438
0.0375 0.63 0.01375 103438
0.0425 0.63 0.01375 103438
0.0475 0.63 0.01375 103438
0.0525 0.63 0.01375 103438
0.0575 0.63 0.01375 103438
0.0625 0.63 0.01375 103438
0.0675 0.63 0.01375 103438
0.0725 0.63 0.01375 103438
0.0775 0.63 0.01375 103438
0.0825 0.63 0.01375 103438
0.0875 0.63 0.01375 103438
0.0925 0.63 0.01375 103438
0.0975 0.63 0.01375 103438
0.0025 0.63 0.01625 103438
0.0075 0.63 0.01625 103438
0.0125 0.63 0.01625 103438
0.0175 0.63 0.01625 103438
0.0225 0.63 0.01625 103438
0.0275 0.63 0.01625 103438
0.0325 0.63 0.01625 103438
0.0375 0.63 0.01625 103438
0.0425 0.63 0.01625 103438
0.0475 0.63 0.01625 103438
0.0525 0.63 0.01625 103438
0.0575 0.63 0.01625 103438
0.0625 0.63 0.01625 103438
0.0675 0.63 0.01625 103438
0.0725 0.63 0.01625 103438
0.0775 0.63 0.01625 103438
0.0825 0.63 0.01625 103438
0.0875 0.63 0.01625 103438
0.0925 0.63 0.01625 103438
0.0975 0.63 0.01625 103438
0.0025 0.63 0.01875 103438
0.0075 0.63 0.01875 103438
0.0125 0.63 0.01875 103438
0.0175 0.63 0.01875 103438
0.0225 0.63 0.01875 103438
0.0275 0.63 0.01875 103438
0.0325 0.63 0.01875 103438
0.0375 0.63 0.01875 103438
0.0425 0.63 0.01875 103438
0.0475 0.63 0.01875 103438
0.0525 0.63 0.01875 103438
0.0575 0.63 0.01875 103438
0.0625 0.63 0.01875 103438
0.0675 0.63 0.01875 103438
0.0725 0.63 0.01875 103438
0.0775 0.63 0.01875 103438
0.0825 0.63 0.01875 103438
0.0875 0.63 0.01875 103438
0.0925 0.63 0.01875 103438
0.0975 0.63 0.01875 103438
