# UMean.air  FACE_DATA 160
#  x  y  z  UMean.air_x  UMean.air_y  UMean.air_z  
0.0025 0.63 0.00125 -0.000214793 0.194678 -0.000386741
0.0075 0.63 0.00125 -0.00172326 0.200887 0.000115006
0.0125 0.63 0.00125 -0.00319873 0.206943 -1.31072e-06
0.0175 0.63 0.00125 -0.00399724 0.213384 0.000173518
0.0225 0.63 0.00125 -0.00464018 0.219851 0.000142244
0.0275 0.63 0.00125 -0.00491442 0.225426 0.00014454
0.0325 0.63 0.00125 -0.00494333 0.230358 0.000134054
0.0375 0.63 0.00125 -0.00469892 0.234404 0.000178814
0.0425 0.63 0.00125 -0.00436246 0.2374 0.000233931
0.0475 0.63 0.00125 -0.00378663 0.239098 0.000242142
0.0525 0.63 0.00125 -0.00305108 0.239616 0.000241572
0.0575 0.63 0.00125 -0.00217876 0.239439 0.000245635
0.0625 0.63 0.00125 -0.00131445 0.237734 0.000381196
0.0675 0.63 0.00125 -0.00059891 0.234303 0.000480817
0.0725 0.63 0.00125 -7.80121e-05 0.230509 0.000462623
0.0775 0.63 0.00125 0.000409334 0.226183 0.000419148
0.0825 0.63 0.00125 0.000837698 0.222086 0.000264133
0.0875 0.63 0.00125 0.00107451 0.217527 0.000389631
0.0925 0.63 0.00125 0.000573006 0.211894 0.000476664
0.0975 0.63 0.00125 3.99982e-05 0.206402 8.50054e-05
0.0025 0.63 0.00375 -0.000117524 0.201898 -0.000646539
0.0075 0.63 0.00375 -0.000749901 0.224123 0.000236642
0.0125 0.63 0.00375 -0.00172698 0.222296 -5.55723e-05
0.0175 0.63 0.00375 -0.00233109 0.222642 0.000117703
0.0225 0.63 0.00375 -0.00300407 0.223229 0.000125032
0.0275 0.63 0.00375 -0.00336158 0.223296 0.000181442
0.0325 0.63 0.00375 -0.00364216 0.223523 0.000227362
0.0375 0.63 0.00375 -0.00371616 0.223844 0.000280291
0.0425 0.63 0.00375 -0.00372388 0.22398 0.000365017
0.0475 0.63 0.00375 -0.00359396 0.223878 0.000438678
0.0525 0.63 0.00375 -0.00340453 0.22358 0.00044052
0.0575 0.63 0.00375 -0.00317305 0.223637 0.000329975
0.0625 0.63 0.00375 -0.00288498 0.224344 0.000383777
0.0675 0.63 0.00375 -0.0024135 0.225289 0.000406265
0.0725 0.63 0.00375 -0.00183256 0.226175 0.000260161
0.0775 0.63 0.00375 -0.00119894 0.227 0.000172611
0.0825 0.63 0.00375 -0.000681299 0.227027 6.04191e-06
0.0875 0.63 0.00375 -0.000319082 0.227654 0.000282095
0.0925 0.63 0.00375 -0.000485802 0.229298 0.000513494
0.0975 0.63 0.00375 -0.000300948 0.21041 -7.42535e-05
0.0025 0.63 0.00625 -0.00106332 0.198928 -0.000459565
0.0075 0.63 0.00625 -0.00199047 0.221449 9.7735e-05
0.0125 0.63 0.00625 -0.00228062 0.219467 -4.21426e-05
0.0175 0.63 0.00625 -0.00283796 0.221359 -5.36461e-05
0.0225 0.63 0.00625 -0.0035485 0.223968 -7.46023e-05
0.0275 0.63 0.00625 -0.00380082 0.225537 -4.93388e-05
0.0325 0.63 0.00625 -0.00397168 0.227013 3.02909e-06
0.0375 0.63 0.00625 -0.00399028 0.228262 -1.17872e-05
0.0425 0.63 0.00625 -0.00399813 0.229138 -1.36497e-05
0.0475 0.63 0.00625 -0.00388444 0.229802 -1.08548e-05
0.0525 0.63 0.00625 -0.00362543 0.230236 -5.57337e-05
0.0575 0.63 0.00625 -0.00324672 0.23044 -0.000161879
0.0625 0.63 0.00625 -0.00277457 0.230568 -0.000142893
0.0675 0.63 0.00625 -0.00215315 0.230601 -0.000112994
0.0725 0.63 0.00625 -0.00142877 0.230113 -0.000173627
0.0775 0.63 0.00625 -0.000713458 0.229322 -0.000174243
0.0825 0.63 0.00625 -0.000330768 0.22736 -0.000202769
0.0875 0.63 0.00625 -9.92704e-05 0.226627 -0.000102955
0.0925 0.63 0.00625 0.000206358 0.229091 -0.000107026
0.0975 0.63 0.00625 0.000264162 0.208653 -0.000201705
0.0025 0.63 0.00875 -0.000951317 0.201159 -6.11131e-05
0.0075 0.63 0.00875 -0.00180101 0.221567 0.000165575
0.0125 0.63 0.00875 -0.00216657 0.219669 0.000128203
0.0175 0.63 0.00875 -0.0027107 0.221253 5.27563e-05
0.0225 0.63 0.00875 -0.00338468 0.223401 -1.57213e-06
0.0275 0.63 0.00875 -0.00365525 0.224529 -5.66228e-06
0.0325 0.63 0.00875 -0.00386842 0.225717 -1.34606e-05
0.0375 0.63 0.00875 -0.00394008 0.226743 -4.9495e-05
0.0425 0.63 0.00875 -0.00399485 0.227496 -0.000102704
0.0475 0.63 0.00875 -0.00391891 0.228167 -0.000179528
0.0525 0.63 0.00875 -0.00368354 0.228665 -0.000218507
0.0575 0.63 0.00875 -0.0032944 0.228918 -0.000255536
0.0625 0.63 0.00875 -0.00280863 0.22898 -0.000199928
0.0675 0.63 0.00875 -0.00221209 0.228921 -0.000101862
0.0725 0.63 0.00875 -0.00155081 0.228635 -2.63707e-05
0.0775 0.63 0.00875 -0.000904801 0.228275 4.29705e-05
0.0825 0.63 0.00875 -0.000531134 0.226995 4.62631e-05
0.0875 0.63 0.00875 -0.000204672 0.226683 2.84794e-05
0.0925 0.63 0.00875 0.000151994 0.229343 -9.1068e-05
0.0975 0.63 0.00875 0.000214309 0.210456 -4.20439e-05
0.0025 0.63 0.01125 -0.000962581 0.201254 0.000125615
0.0075 0.63 0.01125 -0.00178535 0.221772 -0.000170863
0.0125 0.63 0.01125 -0.00212897 0.219875 -0.000217089
0.0175 0.63 0.01125 -0.00267021 0.221469 -0.000202781
0.0225 0.63 0.01125 -0.00331641 0.223582 -0.000110524
0.0275 0.63 0.01125 -0.00357566 0.224602 -8.45651e-07
0.0325 0.63 0.01125 -0.00380468 0.225727 0.0001263
0.0375 0.63 0.01125 -0.00389467 0.226784 0.000197026
0.0425 0.63 0.01125 -0.00396107 0.227544 0.000233298
0.0475 0.63 0.01125 -0.00389115 0.228212 0.000272432
0.0525 0.63 0.01125 -0.0036659 0.228695 0.000313369
0.0575 0.63 0.01125 -0.00327966 0.228952 0.000264263
0.0625 0.63 0.01125 -0.00278881 0.228947 0.00020807
0.0675 0.63 0.01125 -0.00220967 0.228809 0.000131162
0.0725 0.63 0.01125 -0.00156797 0.228551 3.89839e-05
0.0775 0.63 0.01125 -0.000927403 0.228204 -2.02052e-05
0.0825 0.63 0.01125 -0.000577874 0.226987 -9.26675e-05
0.0875 0.63 0.01125 -0.000300571 0.226798 -0.000179016
0.0925 0.63 0.01125 2.68509e-05 0.229605 -5.49305e-05
0.0975 0.63 0.01125 0.000164963 0.210751 0.000157328
0.0025 0.63 0.01375 -0.00105207 0.199266 0.000512901
0.0075 0.63 0.01375 -0.00189906 0.221489 -0.000102253
0.0125 0.63 0.01375 -0.0021397 0.219491 -5.02566e-05
0.0175 0.63 0.01375 -0.00272029 0.221463 6.29266e-06
0.0225 0.63 0.01375 -0.00339717 0.223992 -1.6646e-05
0.0275 0.63 0.01375 -0.00362227 0.225451 3.67305e-05
0.0325 0.63 0.01375 -0.00379487 0.226847 6.28341e-05
0.0375 0.63 0.01375 -0.00384405 0.228011 8.58869e-05
0.0425 0.63 0.01375 -0.00389104 0.228753 7.52451e-05
0.0475 0.63 0.01375 -0.00382393 0.229377 6.57072e-05
0.0525 0.63 0.01375 -0.00362082 0.229859 8.35244e-05
0.0575 0.63 0.01375 -0.00326055 0.230192 8.58082e-05
0.0625 0.63 0.01375 -0.00277479 0.230277 8.35623e-05
0.0675 0.63 0.01375 -0.00217241 0.230184 2.17421e-05
0.0725 0.63 0.01375 -0.00148514 0.229761 2.78199e-05
0.0775 0.63 0.01375 -0.000798377 0.229042 2.25509e-05
0.0825 0.63 0.01375 -0.000459368 0.227347 8.07572e-05
0.0875 0.63 0.01375 -0.000242704 0.226685 -6.97985e-05
0.0925 0.63 0.01375 9.08956e-05 0.229463 -4.50869e-05
0.0975 0.63 0.01375 0.000247124 0.209396 0.000358389
0.0025 0.63 0.01625 -4.3528e-05 0.20279 0.000640905
0.0075 0.63 0.01625 -0.000606229 0.224457 -0.000348164
0.0125 0.63 0.01625 -0.00156211 0.222619 -9.08356e-05
0.0175 0.63 0.01625 -0.00216673 0.223002 -8.65733e-05
0.0225 0.63 0.01625 -0.00281584 0.223481 -0.000287068
0.0275 0.63 0.01625 -0.00312595 0.223519 -0.000246347
0.0325 0.63 0.01625 -0.00335006 0.223688 -0.000268307
0.0375 0.63 0.01625 -0.00343331 0.223671 -0.000308364
0.0425 0.63 0.01625 -0.00351696 0.223572 -0.000281399
0.0475 0.63 0.01625 -0.00350489 0.223488 -0.00031155
0.0525 0.63 0.01625 -0.00342767 0.223591 -0.000383841
0.0575 0.63 0.01625 -0.00324718 0.223861 -0.000386958
0.0625 0.63 0.01625 -0.00295484 0.224551 -0.000433566
0.0675 0.63 0.01625 -0.00250551 0.225544 -0.000450982
0.0725 0.63 0.01625 -0.00194239 0.226477 -0.000420057
0.0775 0.63 0.01625 -0.00132147 0.227365 -0.000312127
0.0825 0.63 0.01625 -0.000867278 0.227682 -2.57669e-05
0.0875 0.63 0.01625 -0.000545394 0.228336 -0.000163539
0.0925 0.63 0.01625 -0.000641717 0.230385 -0.000385073
0.0975 0.63 0.01625 -0.000314988 0.211134 0.000251933
0.0025 0.63 0.01875 -0.000119929 0.195227 0.000344342
0.0075 0.63 0.01875 -0.00145704 0.200674 -0.000237796
0.0125 0.63 0.01875 -0.00291163 0.206121 -9.96806e-05
0.0175 0.63 0.01875 -0.00380061 0.21323 -0.000172429
0.0225 0.63 0.01875 -0.00443308 0.220244 -0.000295772
0.0275 0.63 0.01875 -0.00458362 0.22583 -0.000214922
0.0325 0.63 0.01875 -0.00452783 0.230725 -0.000183784
0.0375 0.63 0.01875 -0.0043089 0.234075 -0.000195517
0.0425 0.63 0.01875 -0.00407165 0.236957 -0.000140162
0.0475 0.63 0.01875 -0.00359972 0.238832 -0.000120908
0.0525 0.63 0.01875 -0.00297134 0.239684 -0.000184886
0.0575 0.63 0.01875 -0.0022319 0.239122 -0.000243809
0.0625 0.63 0.01875 -0.00147024 0.237395 -0.000395498
0.0675 0.63 0.01875 -0.000730682 0.234364 -0.000471931
0.0725 0.63 0.01875 -0.000132893 0.230088 -0.00053199
0.0775 0.63 0.01875 0.000325972 0.225434 -0.000444222
0.0825 0.63 0.01875 0.000600298 0.221613 -0.000185269
0.0875 0.63 0.01875 0.000784274 0.21698 -0.000165856
0.0925 0.63 0.01875 0.000395521 0.212055 -0.000245649
0.0975 0.63 0.01875 -1.23043e-05 0.207077 3.62675e-05
