# UMean.water  FACE_DATA 160
#  x  y  z  UMean.water_x  UMean.water_y  UMean.water_z  
0.0025 0.08 0.00125 0.00572454 -0.169986 -0.000684182
0.0075 0.08 0.00125 0.00897521 -0.125791 0.000224631
0.0125 0.08 0.00125 0.0121476 -0.0731979 0.00021461
0.0175 0.08 0.00125 0.0131159 -0.0174284 0.000271989
0.0225 0.08 0.00125 0.0120976 0.0351861 -1.22498e-05
0.0275 0.08 0.00125 0.0085462 0.0804517 -0.000119434
0.0325 0.08 0.00125 0.00523924 0.106316 -0.000220259
0.0375 0.08 0.00125 0.00270792 0.111914 -0.000535941
0.0425 0.08 0.00125 0.000546437 0.110366 -0.000804635
0.0475 0.08 0.00125 0.000925251 0.107126 -0.000939742
0.0525 0.08 0.00125 0.00172323 0.101538 -0.000868819
0.0575 0.08 0.00125 0.00250017 0.0917622 -0.000780202
0.0625 0.08 0.00125 0.00112763 0.0798041 -0.000686132
0.0675 0.08 0.00125 0.000611274 0.0605811 -0.000803865
0.0725 0.08 0.00125 -0.0001741 0.0283422 -0.00101107
0.0775 0.08 0.00125 0.000527421 -0.0125397 -0.000783683
0.0825 0.08 0.00125 0.00062622 -0.0591392 0.000193264
0.0875 0.08 0.00125 -0.000185453 -0.112367 0.00119808
0.0925 0.08 0.00125 -0.00360165 -0.164589 0.00186934
0.0975 0.08 0.00125 -0.00589262 -0.209873 -0.000574196
0.0025 0.08 0.00375 0.00363093 -0.156456 -0.000790722
0.0075 0.08 0.00375 0.00965318 -0.111492 0.00149752
0.0125 0.08 0.00375 0.0128125 -0.060916 0.00162602
0.0175 0.08 0.00375 0.0139123 -0.00686258 0.00125073
0.0225 0.08 0.00375 0.0126848 0.0436511 0.000603363
0.0275 0.08 0.00375 0.0100437 0.0844234 0.000192547
0.0325 0.08 0.00375 0.00684715 0.105286 -0.000225042
0.0375 0.08 0.00375 0.00389454 0.110312 -0.000958533
0.0425 0.08 0.00375 0.00160439 0.110289 -0.0014061
0.0475 0.08 0.00375 0.00133724 0.107338 -0.00163197
0.0525 0.08 0.00375 0.00136649 0.100954 -0.00151312
0.0575 0.08 0.00375 0.00161817 0.091681 -0.00141409
0.0625 0.08 0.00375 0.000139018 0.0796936 -0.00131068
0.0675 0.08 0.00375 -0.00107642 0.06123 -0.00152723
0.0725 0.08 0.00375 -0.00214599 0.0309895 -0.00189784
0.0775 0.08 0.00375 -0.0019957 -0.00931327 -0.0012874
0.0825 0.08 0.00375 -0.00256731 -0.0558497 0.000698446
0.0875 0.08 0.00375 -0.00264733 -0.10662 0.00308027
0.0925 0.08 0.00375 -0.0034208 -0.154293 0.0045174
0.0975 0.08 0.00375 -0.00134859 -0.198255 0.000422981
0.0025 0.08 0.00625 0.00281383 -0.147629 -0.00110248
0.0075 0.08 0.00625 0.00981906 -0.104658 0.000991617
0.0125 0.08 0.00625 0.0130016 -0.0564538 0.00172041
0.0175 0.08 0.00625 0.0139039 -0.00239085 0.00120463
0.0225 0.08 0.00625 0.0127568 0.0479345 0.000525568
0.0275 0.08 0.00625 0.0106526 0.0867465 6.63829e-05
0.0325 0.08 0.00625 0.00774197 0.106809 -0.000497055
0.0375 0.08 0.00625 0.0048539 0.112597 -0.00126336
0.0425 0.08 0.00625 0.00251515 0.113492 -0.00161037
0.0475 0.08 0.00625 0.00175771 0.110496 -0.00191307
0.0525 0.08 0.00625 0.00153818 0.103685 -0.00180229
0.0575 0.08 0.00625 0.00130921 0.0948831 -0.00173841
0.0625 0.08 0.00625 -0.000611653 0.0832035 -0.00198923
0.0675 0.08 0.00625 -0.00242671 0.0642283 -0.0023577
0.0725 0.08 0.00625 -0.00395424 0.0333111 -0.00305556
0.0775 0.08 0.00625 -0.00433874 -0.00809172 -0.00255506
0.0825 0.08 0.00625 -0.00535032 -0.0559398 8.80403e-05
0.0875 0.08 0.00625 -0.00473944 -0.106018 0.00326115
0.0925 0.08 0.00625 -0.00350946 -0.149875 0.00490476
0.0975 0.08 0.00625 0.000414788 -0.190774 0.00127674
0.0025 0.08 0.00875 0.00250263 -0.144353 -0.00110268
0.0075 0.08 0.00875 0.00970912 -0.103723 0.000539579
0.0125 0.08 0.00875 0.0129954 -0.0564977 0.00158476
0.0175 0.08 0.00875 0.0137506 -0.00209124 0.00114243
0.0225 0.08 0.00875 0.0127076 0.0483903 0.000421655
0.0275 0.08 0.00875 0.0110231 0.0869077 -2.9715e-05
0.0325 0.08 0.00875 0.00843535 0.10753 -0.000181691
0.0375 0.08 0.00875 0.0056735 0.114241 -0.000578066
0.0425 0.08 0.00875 0.00332241 0.115635 -0.000854698
0.0475 0.08 0.00875 0.0023427 0.112564 -0.00118976
0.0525 0.08 0.00875 0.00201366 0.105398 -0.00098512
0.0575 0.08 0.00875 0.00139662 0.0970247 -0.000998124
0.0625 0.08 0.00875 -0.000929141 0.0858665 -0.00155783
0.0675 0.08 0.00875 -0.00330559 0.0665355 -0.00234298
0.0725 0.08 0.00875 -0.00518532 0.034403 -0.00343354
0.0775 0.08 0.00875 -0.00609885 -0.0094428 -0.00306613
0.0825 0.08 0.00875 -0.00763447 -0.0594901 -0.000308553
0.0875 0.08 0.00875 -0.00636687 -0.109364 0.00283855
0.0925 0.08 0.00875 -0.00381642 -0.150959 0.00455191
0.0975 0.08 0.00875 0.00112783 -0.189052 0.00254354
0.0025 0.08 0.01125 0.00251465 -0.142639 -0.000987354
0.0075 0.08 0.01125 0.00958422 -0.101515 -0.000393532
0.0125 0.08 0.01125 0.0129444 -0.0550193 0.000968658
0.0175 0.08 0.01125 0.0138287 -0.00213021 0.000614371
0.0225 0.08 0.01125 0.012746 0.0472445 -0.000108261
0.0275 0.08 0.01125 0.0111553 0.0855751 -0.000412336
0.0325 0.08 0.01125 0.00868783 0.105716 -0.00010139
0.0375 0.08 0.01125 0.00598619 0.112025 3.51452e-05
0.0425 0.08 0.01125 0.00380671 0.113339 -6.387e-06
0.0475 0.08 0.01125 0.00319069 0.110384 -0.000237567
0.0525 0.08 0.01125 0.00295224 0.103349 -3.19646e-05
0.0575 0.08 0.01125 0.00208474 0.095831 -0.000271756
0.0625 0.08 0.01125 -0.00039254 0.0858949 -0.00117625
0.0675 0.08 0.01125 -0.00310524 0.0676545 -0.00233647
0.0725 0.08 0.01125 -0.00540469 0.035804 -0.00375289
0.0775 0.08 0.01125 -0.00704021 -0.00920964 -0.00352762
0.0825 0.08 0.01125 -0.00928396 -0.0598481 -0.00124067
0.0875 0.08 0.01125 -0.00793161 -0.109104 0.00143117
0.0925 0.08 0.01125 -0.00472585 -0.150344 0.00319357
0.0975 0.08 0.01125 0.000793564 -0.188577 0.00344027
0.0025 0.08 0.01375 0.00288928 -0.142523 -0.000473956
0.0075 0.08 0.01375 0.00950037 -0.0988071 -0.000872313
0.0125 0.08 0.01375 0.0129162 -0.0527125 0.000520206
0.0175 0.08 0.01375 0.0141308 -0.00242404 0.000308879
0.0225 0.08 0.01375 0.0128611 0.0447638 -0.000333501
0.0275 0.08 0.01375 0.0110863 0.0825104 -0.000544032
0.0325 0.08 0.01375 0.00861062 0.101044 0.000229889
0.0375 0.08 0.01375 0.00585579 0.105918 0.000692253
0.0425 0.08 0.01375 0.00402134 0.106857 0.000897602
0.0475 0.08 0.01375 0.00416841 0.104386 0.000870395
0.0525 0.08 0.01375 0.00421555 0.0979929 0.00106677
0.0575 0.08 0.01375 0.00342817 0.0916832 0.000564449
0.0625 0.08 0.01375 0.00110237 0.0835351 -0.000482566
0.0675 0.08 0.01375 -0.00164895 0.0678607 -0.00186822
0.0725 0.08 0.01375 -0.00449957 0.0375022 -0.00351893
0.0775 0.08 0.01375 -0.00700474 -0.00760857 -0.00340585
0.0825 0.08 0.01375 -0.0101737 -0.05734 -0.00167753
0.0875 0.08 0.01375 -0.00946462 -0.105387 0.000286072
0.0925 0.08 0.01375 -0.00643323 -0.147793 0.00186312
0.0975 0.08 0.01375 -0.000510572 -0.189085 0.00410817
0.0025 0.08 0.01625 0.0037527 -0.148423 -9.97293e-05
0.0075 0.08 0.01625 0.00981642 -0.103115 -0.00157757
0.0125 0.08 0.01625 0.0127756 -0.0554447 -0.000454439
0.0175 0.08 0.01625 0.0141506 -0.0063863 -0.000349214
0.0225 0.08 0.01625 0.0128219 0.0397785 -0.000543299
0.0275 0.08 0.01625 0.0110662 0.0776845 -0.000487308
0.0325 0.08 0.01625 0.00863354 0.0961142 -4.49051e-05
0.0375 0.08 0.01625 0.00553256 0.0997294 0.000598303
0.0425 0.08 0.01625 0.00405384 0.100423 0.00105058
0.0475 0.08 0.01625 0.00484361 0.0985717 0.00114356
0.0525 0.08 0.01625 0.00535309 0.0925607 0.00116699
0.0575 0.08 0.01625 0.00501893 0.0873046 0.000574972
0.0625 0.08 0.01625 0.00300286 0.0810839 -0.000264772
0.0675 0.08 0.01625 0.000514756 0.0674511 -0.00124576
0.0725 0.08 0.01625 -0.00247234 0.0373634 -0.00271004
0.0775 0.08 0.01625 -0.00561832 -0.00893219 -0.00289869
0.0825 0.08 0.01625 -0.00982733 -0.0583718 -0.00199408
0.0875 0.08 0.01625 -0.0104836 -0.105827 -0.000893773
0.0925 0.08 0.01625 -0.00831873 -0.151492 -5.09578e-06
0.0975 0.08 0.01625 -0.00278805 -0.195529 0.00333452
0.0025 0.08 0.01875 0.00670978 -0.16037 0.000420631
0.0075 0.08 0.01875 0.00984559 -0.116783 -0.0003306
0.0125 0.08 0.01875 0.0122616 -0.0659291 5.79798e-05
0.0175 0.08 0.01875 0.013591 -0.0145311 0.000129106
0.0225 0.08 0.01875 0.0122703 0.0335235 -7.98152e-05
0.0275 0.08 0.01875 0.0104402 0.0742917 -0.000218985
0.0325 0.08 0.01875 0.00829006 0.097056 -0.0001334
0.0375 0.08 0.01875 0.00484414 0.0997894 0.000342059
0.0425 0.08 0.01875 0.00341638 0.0993786 0.000720759
0.0475 0.08 0.01875 0.00450627 0.0975469 0.00077658
0.0525 0.08 0.01875 0.00581992 0.0913655 0.000839409
0.0575 0.08 0.01875 0.00667378 0.087017 0.000504573
0.0625 0.08 0.01875 0.00537852 0.0828979 1.73359e-05
0.0675 0.08 0.01875 0.00351528 0.0686306 -0.000538493
0.0725 0.08 0.01875 0.000313353 0.0359255 -0.0012157
0.0775 0.08 0.01875 -0.00389883 -0.0128839 -0.00125781
0.0825 0.08 0.01875 -0.00911865 -0.0642915 -0.000822193
0.0875 0.08 0.01875 -0.0114755 -0.113955 -0.000308886
0.0925 0.08 0.01875 -0.0105485 -0.164274 6.18792e-05
0.0975 0.08 0.01875 -0.00741688 -0.207315 0.00226486
