# UMean.air  FACE_DATA 160
#  x  y  z  UMean.air_x  UMean.air_y  UMean.air_z  
0.0025 0.08 0.00125 0.00642969 0.0614443 0.00123905
0.0075 0.08 0.00125 0.0071041 0.105914 0.00461696
0.0125 0.08 0.00125 0.00666509 0.158777 0.0015638
0.0175 0.08 0.00125 0.00781326 0.214115 -0.000720107
0.0225 0.08 0.00125 0.00847525 0.26594 -0.000830365
0.0275 0.08 0.00125 0.00698701 0.309858 -0.00159019
0.0325 0.08 0.00125 0.00683904 0.334685 -0.00535193
0.0375 0.08 0.00125 0.00684494 0.339531 -0.0081453
0.0425 0.08 0.00125 0.00437339 0.33747 -0.00790344
0.0475 0.08 0.00125 0.00310817 0.334363 -0.0073091
0.0525 0.08 0.00125 0.00258206 0.328949 -0.00696495
0.0575 0.08 0.00125 0.00191277 0.319268 -0.00618363
0.0625 0.08 0.00125 9.53807e-07 0.308734 -0.00538328
0.0675 0.08 0.00125 0.000984833 0.290237 -0.00337094
0.0725 0.08 0.00125 0.00167924 0.258455 -0.00096249
0.0775 0.08 0.00125 0.00326932 0.217645 0.000603737
0.0825 0.08 0.00125 0.00384372 0.170941 0.00279234
0.0875 0.08 0.00125 0.00245793 0.118214 0.00527476
0.0925 0.08 0.00125 -0.00366793 0.0658877 0.0071228
0.0975 0.08 0.00125 -0.00762235 0.0200242 0.00240736
0.0025 0.08 0.00375 0.00521207 0.0749938 0.000423966
0.0075 0.08 0.00375 0.00632036 0.120793 0.00456932
0.0125 0.08 0.00375 0.00338831 0.171654 0.00216397
0.0175 0.08 0.00375 0.00460718 0.225902 -0.000511435
0.0225 0.08 0.00375 0.00625605 0.275805 -0.000999426
0.0275 0.08 0.00375 0.00764591 0.315588 -0.00162073
0.0325 0.08 0.00375 0.00852919 0.336381 -0.00524514
0.0375 0.08 0.00375 0.00778901 0.340861 -0.00853441
0.0425 0.08 0.00375 0.00517643 0.339601 -0.00874078
0.0475 0.08 0.00375 0.00383822 0.336493 -0.00824511
0.0525 0.08 0.00375 0.00288005 0.330413 -0.00779169
0.0575 0.08 0.00375 0.00208238 0.321336 -0.0070678
0.0625 0.08 0.00375 0.000130438 0.31123 -0.0062325
0.0675 0.08 0.00375 0.000779505 0.292771 -0.00427198
0.0725 0.08 0.00375 0.00222973 0.262414 -0.00212489
0.0775 0.08 0.00375 0.00432673 0.222137 0.000115547
0.0825 0.08 0.00375 0.00437427 0.175325 0.00393261
0.0875 0.08 0.00375 0.00340456 0.12507 0.00764555
0.0925 0.08 0.00375 -0.00260971 0.0776046 0.00956711
0.0975 0.08 0.00375 -0.0040489 0.0318629 0.00333766
0.0025 0.08 0.00625 0.00391264 0.0836343 -0.00192833
0.0075 0.08 0.00625 0.0061331 0.127541 -0.000294851
0.0125 0.08 0.00625 0.00369307 0.176659 0.000890974
0.0175 0.08 0.00625 0.00448182 0.23052 1.62912e-05
0.0225 0.08 0.00625 0.00641942 0.280133 -0.000753331
0.0275 0.08 0.00625 0.00837803 0.317991 -0.000661481
0.0325 0.08 0.00625 0.00928828 0.338166 -0.000997295
0.0375 0.08 0.00625 0.00860104 0.343441 -0.00207666
0.0425 0.08 0.00625 0.00591268 0.342998 -0.00259709
0.0475 0.08 0.00625 0.00415304 0.339849 -0.00294839
0.0525 0.08 0.00625 0.00298659 0.333415 -0.00286118
0.0575 0.08 0.00625 0.00187991 0.324832 -0.00294961
0.0625 0.08 0.00625 -0.000413619 0.314868 -0.00307598
0.0675 0.08 0.00625 -0.000251839 0.296777 -0.00321682
0.0725 0.08 0.00625 0.000769593 0.265686 -0.00382819
0.0775 0.08 0.00625 0.00243919 0.224127 -0.00248737
0.0825 0.08 0.00625 0.00187466 0.17582 0.0016439
0.0875 0.08 0.00625 0.00102658 0.125674 0.00499383
0.0925 0.08 0.00625 -0.00271358 0.0817014 0.00583011
0.0975 0.08 0.00625 -0.00205605 0.0396396 0.0020817
0.0025 0.08 0.00875 0.00349107 0.0874188 -0.00179653
0.0075 0.08 0.00875 0.00581279 0.12875 -0.000163027
0.0125 0.08 0.00875 0.00360794 0.176606 0.00126254
0.0175 0.08 0.00875 0.00413654 0.231106 0.00099859
0.0225 0.08 0.00875 0.00625344 0.280937 0.000350538
0.0275 0.08 0.00875 0.00869795 0.318214 -1.0812e-05
0.0325 0.08 0.00875 0.00985688 0.338732 0.00011682
0.0375 0.08 0.00875 0.00931109 0.345021 -0.000369392
0.0425 0.08 0.00875 0.0066304 0.344997 -0.000680202
0.0475 0.08 0.00875 0.00473165 0.341879 -0.0011041
0.0525 0.08 0.00875 0.00344484 0.335142 -0.00100936
0.0575 0.08 0.00875 0.00197096 0.326879 -0.00137945
0.0625 0.08 0.00875 -0.000738505 0.3172 -0.00197118
0.0675 0.08 0.00875 -0.00106979 0.299268 -0.00283392
0.0725 0.08 0.00875 -0.000215002 0.267187 -0.00392026
0.0775 0.08 0.00875 0.00123202 0.223305 -0.00266415
0.0825 0.08 0.00875 -0.000105981 0.172547 0.00112866
0.0875 0.08 0.00875 -0.000847488 0.122388 0.0043458
0.0925 0.08 0.00875 -0.00327559 0.0807895 0.00605999
0.0975 0.08 0.00875 -0.00137952 0.0415568 0.0036485
0.0025 0.08 0.01125 0.00346352 0.0890649 -0.00168157
0.0075 0.08 0.01125 0.00583407 0.131102 -0.00165444
0.0125 0.08 0.01125 0.00380191 0.177474 3.25922e-05
0.0175 0.08 0.01125 0.00427814 0.230587 0.000603847
0.0225 0.08 0.01125 0.00630305 0.280027 0.00042016
0.0275 0.08 0.01125 0.00901457 0.317057 0.000193877
0.0325 0.08 0.01125 0.0103164 0.336967 0.00121369
0.0375 0.08 0.01125 0.00970422 0.342818 0.0018094
0.0425 0.08 0.01125 0.00717321 0.342805 0.00178191
0.0475 0.08 0.01125 0.00554166 0.339925 0.00129869
0.0525 0.08 0.01125 0.00423311 0.333225 0.00129298
0.0575 0.08 0.01125 0.00237039 0.325659 0.000481881
0.0625 0.08 0.01125 -0.000577301 0.317023 -0.000777222
0.0675 0.08 0.01125 -0.00113088 0.300284 -0.00253758
0.0725 0.08 0.01125 -0.000503228 0.268552 -0.00429983
0.0775 0.08 0.01125 0.000595696 0.223487 -0.00353161
0.0825 0.08 0.01125 -0.00170993 0.171946 -0.00106697
0.0875 0.08 0.01125 -0.00253007 0.122297 0.00132867
0.0925 0.08 0.01125 -0.00444401 0.0809519 0.00366105
0.0975 0.08 0.01125 -0.00186852 0.0419081 0.00424856
0.0025 0.08 0.01375 0.00392828 0.0894014 -0.000578494
0.0075 0.08 0.01375 0.00621604 0.133457 -0.000948367
0.0125 0.08 0.01375 0.00429765 0.179317 0.000286973
0.0175 0.08 0.01375 0.00498268 0.229983 0.000975859
0.0225 0.08 0.01375 0.00669731 0.277406 0.000913248
0.0275 0.08 0.01375 0.00942196 0.314626 0.00067465
0.0325 0.08 0.01375 0.0107627 0.332543 0.0021363
0.0375 0.08 0.01375 0.00989523 0.33665 0.00330255
0.0425 0.08 0.01375 0.00751465 0.336694 0.00360139
0.0475 0.08 0.01375 0.00641946 0.334295 0.00337498
0.0525 0.08 0.01375 0.00519871 0.328059 0.00330451
0.0575 0.08 0.01375 0.00318354 0.321623 0.0020176
0.0625 0.08 0.01375 0.00019764 0.314646 0.000335893
0.0675 0.08 0.01375 -0.000388893 0.299836 -0.00190284
0.0725 0.08 0.01375 -7.7739e-05 0.269415 -0.00384269
0.0775 0.08 0.01375 0.000376839 0.224023 -0.00337889
0.0825 0.08 0.01375 -0.0029023 0.173365 -0.00178442
0.0875 0.08 0.01375 -0.0042821 0.125073 0.000187249
0.0925 0.08 0.01375 -0.00630099 0.0823826 0.00301453
0.0975 0.08 0.01375 -0.0033481 0.0408931 0.00502071
0.0025 0.08 0.01625 0.00510075 0.0836484 -0.00143538
0.0075 0.08 0.01625 0.00700005 0.129024 -0.00436406
0.0125 0.08 0.01625 0.00438461 0.176521 -0.00215667
0.0175 0.08 0.01625 0.00523072 0.226045 -0.000715132
0.0225 0.08 0.01625 0.00669339 0.272288 4.87007e-05
0.0275 0.08 0.01625 0.00975783 0.30957 0.00183502
0.0325 0.08 0.01625 0.011221 0.327549 0.00598263
0.0375 0.08 0.01625 0.00976318 0.330241 0.00855537
0.0425 0.08 0.01625 0.00766293 0.330193 0.00933881
0.0475 0.08 0.01625 0.00713662 0.32832 0.00903399
0.0525 0.08 0.01625 0.00611603 0.322421 0.00819694
0.0575 0.08 0.01625 0.00421331 0.317148 0.00639325
0.0625 0.08 0.01625 0.00132263 0.311979 0.00422512
0.0675 0.08 0.01625 0.00109311 0.298716 0.000727131
0.0725 0.08 0.01625 0.001728 0.268884 -0.00260069
0.0775 0.08 0.01625 0.00178222 0.222512 -0.00362063
0.0825 0.08 0.01625 -0.00270614 0.172127 -0.00328309
0.0875 0.08 0.01625 -0.00519794 0.124007 -0.00354192
0.0925 0.08 0.01625 -0.00862728 0.078003 -0.00398581
0.0975 0.08 0.01625 -0.00615047 0.0339953 0.000925937
0.0025 0.08 0.01875 0.00755573 0.0714121 -0.00128148
0.0075 0.08 0.01875 0.00850102 0.114983 -0.00375716
0.0125 0.08 0.01875 0.00763547 0.165409 -0.00201774
0.0175 0.08 0.01875 0.00814745 0.216722 -0.000793568
0.0225 0.08 0.01875 0.00868035 0.264519 1.11117e-05
0.0275 0.08 0.01875 0.0103494 0.304381 0.00189062
0.0325 0.08 0.01875 0.0114032 0.325072 0.00552622
0.0375 0.08 0.01875 0.00965959 0.32774 0.00752926
0.0425 0.08 0.01875 0.00733211 0.326874 0.00807609
0.0475 0.08 0.01875 0.00683601 0.325196 0.00783578
0.0525 0.08 0.01875 0.00631184 0.319281 0.00708566
0.0575 0.08 0.01875 0.00520191 0.314728 0.00593285
0.0625 0.08 0.01875 0.00289684 0.311611 0.00454567
0.0675 0.08 0.01875 0.00281104 0.297903 0.00195299
0.0725 0.08 0.01875 0.00219442 0.266092 -0.000590272
0.0775 0.08 0.01875 -1.09036e-05 0.217365 -0.00198116
0.0825 0.08 0.01875 -0.00581283 0.165451 -0.002299
0.0875 0.08 0.01875 -0.00932619 0.115454 -0.00332911
0.0925 0.08 0.01875 -0.0113953 0.0651573 -0.00525319
0.0975 0.08 0.01875 -0.00977883 0.0220357 -0.00110709
