# UMean.water  FACE_DATA 160
#  x  y  z  UMean.water_x  UMean.water_y  UMean.water_z  
0.0025 0.63 0.00125 -1.89003e-05 -0.0290168 -0.000242717
0.0075 0.63 0.00125 -0.000863405 -0.0229447 -0.000163716
0.0125 0.63 0.00125 -0.00184727 -0.0168053 -0.000120784
0.0175 0.63 0.00125 -0.00250889 -0.0103409 -0.00010327
0.0225 0.63 0.00125 -0.00314363 -0.00384167 -7.00686e-05
0.0275 0.63 0.00125 -0.00352989 0.0017334 -5.22897e-05
0.0325 0.63 0.00125 -0.00375445 0.00664151 -4.54589e-05
0.0375 0.63 0.00125 -0.00375768 0.010679 -3.53895e-05
0.0425 0.63 0.00125 -0.00367498 0.0136583 -1.16632e-05
0.0475 0.63 0.00125 -0.0033824 0.0153131 2.67896e-05
0.0525 0.63 0.00125 -0.00297355 0.015794 7.65522e-05
0.0575 0.63 0.00125 -0.0025407 0.0156081 0.000148944
0.0625 0.63 0.00125 -0.00215608 0.0138747 0.00021885
0.0675 0.63 0.00125 -0.00174342 0.0103909 0.000227437
0.0725 0.63 0.00125 -0.0013424 0.00655999 0.000186937
0.0775 0.63 0.00125 -0.000880276 0.0022093 0.000126006
0.0825 0.63 0.00125 -0.000437892 -0.00188002 5.21866e-05
0.0875 0.63 0.00125 -0.000189052 -0.00644706 4.51549e-05
0.0925 0.63 0.00125 -0.000271053 -0.0121635 4.84325e-05
0.0975 0.63 0.00125 -0.000165419 -0.017596 4.97843e-05
0.0025 0.63 0.00375 -0.000422823 -0.0217449 -0.000272365
0.0075 0.63 0.00375 -0.00100289 0.000983155 3.53071e-05
0.0125 0.63 0.00375 -0.00175162 -0.00106796 2.57392e-05
0.0175 0.63 0.00375 -0.00241167 -0.000825963 -1.37861e-05
0.0225 0.63 0.00375 -0.00303341 -0.000364538 4.27034e-08
0.0275 0.63 0.00375 -0.00340678 -0.000448208 2.00794e-05
0.0325 0.63 0.00375 -0.00365407 -0.000347462 1.61468e-05
0.0375 0.63 0.00375 -0.00372998 -0.000115045 6.47905e-06
0.0425 0.63 0.00375 -0.00376358 -4.11833e-05 7.57292e-06
0.0475 0.63 0.00375 -0.0036499 -0.000206851 4.41352e-05
0.0525 0.63 0.00375 -0.00340905 -0.000550579 9.37811e-05
0.0575 0.63 0.00375 -0.00306534 -0.000496691 0.000128017
0.0625 0.63 0.00375 -0.00265685 0.000229112 0.0001549
0.0675 0.63 0.00375 -0.00212132 0.00121473 0.000140988
0.0725 0.63 0.00375 -0.00156333 0.00216442 8.97025e-05
0.0775 0.63 0.00375 -0.00101436 0.0030724 4.78119e-05
0.0825 0.63 0.00375 -0.00054442 0.00319897 3.13048e-05
0.0875 0.63 0.00375 -0.000275333 0.00398368 0.000124394
0.0925 0.63 0.00375 -0.000248723 0.00582101 0.000175472
0.0975 0.63 0.00375 -5.55266e-05 -0.0134646 6.60066e-05
0.0025 0.63 0.00625 -0.000701896 -0.0249039 -0.000220394
0.0075 0.63 0.00625 -0.00125993 -0.00221046 6.63116e-05
0.0125 0.63 0.00625 -0.00178156 -0.00430219 5.36416e-05
0.0175 0.63 0.00625 -0.00240279 -0.00234734 -5.24864e-08
0.0225 0.63 0.00625 -0.00299366 0.000288014 -1.10569e-05
0.0275 0.63 0.00625 -0.00334956 0.00184355 8.44944e-06
0.0325 0.63 0.00625 -0.00361258 0.00330945 2.39562e-05
0.0375 0.63 0.00625 -0.00371628 0.00455579 1.53038e-05
0.0425 0.63 0.00625 -0.00378104 0.0054392 -1.70015e-06
0.0475 0.63 0.00625 -0.00372321 0.00609788 -5.01879e-06
0.0525 0.63 0.00625 -0.0035221 0.00651451 5.03988e-06
0.0575 0.63 0.00625 -0.00318804 0.00669354 5.63388e-06
0.0625 0.63 0.00625 -0.00275958 0.00678647 2.48893e-05
0.0675 0.63 0.00625 -0.00221354 0.00677844 2.22466e-05
0.0725 0.63 0.00625 -0.00162887 0.00623956 -1.04971e-05
0.0775 0.63 0.00625 -0.00107064 0.0054162 -1.72595e-05
0.0825 0.63 0.00625 -0.000602839 0.00341669 -7.53368e-06
0.0875 0.63 0.00625 -0.00028632 0.00270079 4.40711e-05
0.0925 0.63 0.00625 -8.39473e-05 0.00530106 6.74735e-05
0.0975 0.63 0.00625 9.57962e-05 -0.0153067 5.04577e-05
0.0025 0.63 0.00875 -0.000810094 -0.02258 -4.17442e-05
0.0075 0.63 0.00875 -0.00138278 -0.00203494 4.36901e-05
0.0125 0.63 0.00875 -0.00182455 -0.00402344 2.26106e-05
0.0175 0.63 0.00875 -0.00239705 -0.00242045 -2.20474e-05
0.0225 0.63 0.00875 -0.00296171 -0.000302405 -2.48185e-05
0.0275 0.63 0.00875 -0.00331886 0.000768907 4.06921e-06
0.0325 0.63 0.00875 -0.00359167 0.00191474 2.61085e-05
0.0375 0.63 0.00875 -0.0037176 0.00290708 2.72695e-05
0.0425 0.63 0.00875 -0.00379965 0.00363796 -1.96047e-06
0.0475 0.63 0.00875 -0.00375404 0.00428074 -1.53408e-05
0.0525 0.63 0.00875 -0.00356878 0.00474647 -4.86805e-06
0.0575 0.63 0.00875 -0.00323523 0.00496963 -6.34723e-06
0.0625 0.63 0.00875 -0.00279878 0.00500644 3.19676e-06
0.0675 0.63 0.00875 -0.00224584 0.00492963 1.84431e-06
0.0725 0.63 0.00875 -0.00165675 0.00463485 -6.8862e-06
0.0775 0.63 0.00875 -0.00110473 0.00429251 -1.54052e-06
0.0825 0.63 0.00875 -0.0006432 0.00303453 2.82662e-06
0.0875 0.63 0.00875 -0.000310784 0.00276002 1.22988e-06
0.0925 0.63 0.00875 -4.36018e-05 0.00552976 -1.74015e-06
0.0975 0.63 0.00875 0.000137957 -0.0134383 5.80818e-05
0.0025 0.63 0.01125 -0.000801268 -0.0224837 0.000136807
0.0075 0.63 0.01125 -0.00135808 -0.00182153 -9.67175e-06
0.0125 0.63 0.01125 -0.00179735 -0.0038099 -3.31397e-05
0.0175 0.63 0.01125 -0.00236133 -0.00220205 -4.57381e-05
0.0225 0.63 0.01125 -0.00291197 -0.000114611 -3.41236e-05
0.0275 0.63 0.01125 -0.00326153 0.000851948 4.03016e-06
0.0325 0.63 0.01125 -0.00353532 0.00193573 4.96117e-05
0.0375 0.63 0.01125 -0.00366737 0.00296449 6.80081e-05
0.0425 0.63 0.01125 -0.00376056 0.00370403 4.43681e-05
0.0475 0.63 0.01125 -0.00372517 0.00434166 1.88061e-05
0.0525 0.63 0.01125 -0.00355203 0.00479119 9.19167e-06
0.0575 0.63 0.01125 -0.00322929 0.00501559 -1.44726e-05
0.0625 0.63 0.01125 -0.00279569 0.00498212 -2.77936e-05
0.0675 0.63 0.01125 -0.00225143 0.00482672 -5.46805e-05
0.0725 0.63 0.01125 -0.00166665 0.00456347 -6.42058e-05
0.0775 0.63 0.01125 -0.00111806 0.00423157 -4.02499e-05
0.0825 0.63 0.01125 -0.000669941 0.00303038 -1.44997e-05
0.0875 0.63 0.01125 -0.000334381 0.00287448 -3.97776e-05
0.0925 0.63 0.01125 -6.78372e-05 0.00578715 -2.51985e-05
0.0975 0.63 0.01125 0.000134328 -0.013147 0.000129264
0.0025 0.63 0.01375 -0.000675667 -0.0245579 0.000290122
0.0075 0.63 0.01375 -0.00119672 -0.00217217 -4.13373e-05
0.0125 0.63 0.01375 -0.00169527 -0.00428623 -6.54856e-05
0.0175 0.63 0.01375 -0.0023034 -0.00226011 -6.07984e-05
0.0225 0.63 0.01375 -0.00286166 0.000303106 -5.14316e-05
0.0275 0.63 0.01375 -0.00319836 0.00175658 -1.39605e-05
0.0325 0.63 0.01375 -0.00346016 0.00315526 2.67498e-05
0.0375 0.63 0.01375 -0.00359214 0.00432338 4.92944e-05
0.0425 0.63 0.01375 -0.00368472 0.00506167 2.24497e-05
0.0475 0.63 0.01375 -0.00365155 0.00567345 -4.50268e-06
0.0525 0.63 0.01375 -0.00348876 0.00613522 -1.14165e-05
0.0575 0.63 0.01375 -0.00318116 0.00643935 -3.69326e-05
0.0625 0.63 0.01375 -0.00276195 0.00648373 -5.45969e-05
0.0675 0.63 0.01375 -0.00223387 0.00634683 -8.94613e-05
0.0725 0.63 0.01375 -0.00165909 0.00588298 -9.16326e-05
0.0775 0.63 0.01375 -0.00111259 0.00513172 -5.23161e-05
0.0825 0.63 0.01375 -0.000679993 0.00339289 -1.42921e-05
0.0875 0.63 0.01375 -0.000366183 0.00272058 -6.96943e-05
0.0925 0.63 0.01375 -0.000153755 0.00562263 -5.87389e-05
0.0975 0.63 0.01375 9.11853e-05 -0.0145522 0.000161707
0.0025 0.63 0.01625 -0.000380472 -0.0208444 0.000294146
0.0075 0.63 0.01625 -0.000901332 0.00130594 -5.11794e-05
0.0125 0.63 0.01625 -0.00159388 -0.00074485 -5.6007e-05
0.0175 0.63 0.01625 -0.0022424 -0.000477825 -3.46043e-05
0.0225 0.63 0.01625 -0.00282317 -0.000129703 -7.37259e-05
0.0275 0.63 0.01625 -0.00316279 -0.000229892 -5.03661e-05
0.0325 0.63 0.01625 -0.00340475 -0.000171658 -2.48561e-06
0.0375 0.63 0.01625 -0.00350273 -0.00027155 2.43451e-05
0.0425 0.63 0.01625 -0.00356341 -0.000437953 -5.20568e-06
0.0475 0.63 0.01625 -0.00350319 -0.000582662 -6.46947e-05
0.0525 0.63 0.01625 -0.00333833 -0.000509878 -0.000112254
0.0575 0.63 0.01625 -0.00305715 -0.000254099 -0.000158115
0.0625 0.63 0.01625 -0.00267641 0.000450163 -0.000174443
0.0675 0.63 0.01625 -0.00217593 0.00147718 -0.000191663
0.0725 0.63 0.01625 -0.00163191 0.00246748 -0.000185888
0.0775 0.63 0.01625 -0.00109242 0.0034467 -0.000105332
0.0825 0.63 0.01625 -0.000669744 0.00386758 -2.25107e-05
0.0875 0.63 0.01625 -0.000397082 0.00465444 -9.15099e-05
0.0925 0.63 0.01625 -0.000331436 0.00689401 -0.000104768
0.0975 0.63 0.01625 -6.11894e-05 -0.0127069 0.000128023
0.0025 0.63 0.01875 1.49157e-05 -0.0285025 0.000230762
0.0075 0.63 0.01875 -0.000684611 -0.0232173 0.000125361
0.0125 0.63 0.01875 -0.00156139 -0.0176917 9.42626e-05
0.0175 0.63 0.01875 -0.0022468 -0.0105422 6.3778e-05
0.0225 0.63 0.01875 -0.00288221 -0.00350074 4.40624e-07
0.0275 0.63 0.01875 -0.00321038 0.00209916 2.63504e-05
0.0325 0.63 0.01875 -0.00338637 0.00700693 4.94879e-05
0.0375 0.63 0.01875 -0.00337569 0.0103516 6.16989e-05
0.0425 0.63 0.01875 -0.00331443 0.0132291 2.27621e-05
0.0475 0.63 0.01875 -0.00310744 0.0150754 -3.08044e-05
0.0525 0.63 0.01875 -0.00285541 0.0159066 -9.95606e-05
0.0575 0.63 0.01875 -0.00257781 0.0153048 -0.000166825
0.0625 0.63 0.01875 -0.00225875 0.0135262 -0.000223228
0.0675 0.63 0.01875 -0.00187251 0.0104325 -0.000253722
0.0725 0.63 0.01875 -0.00148134 0.006087 -0.000244592
0.0775 0.63 0.01875 -0.00103367 0.00142994 -0.000149615
0.0825 0.63 0.01875 -0.000648746 -0.00234882 -1.70928e-05
0.0875 0.63 0.01875 -0.00038161 -0.00699831 7.55526e-06
0.0925 0.63 0.01875 -0.000377431 -0.0119768 3.69363e-05
0.0975 0.63 0.01875 -0.000203504 -0.0168206 6.75309e-05
