# alphaMean.air  FACE_DATA 80
#  x  y  z  alphaMean.air
0.0025 0.63 0.0025 0.0139572
0.0075 0.63 0.0025 0.0208196
0.0125 0.63 0.0025 0.0263746
0.0175 0.63 0.0025 0.0304082
0.0225 0.63 0.0025 0.0333375
0.0275 0.63 0.0025 0.0361847
0.0325 0.63 0.0025 0.038325
0.0375 0.63 0.0025 0.040166
0.0425 0.63 0.0025 0.0417241
0.0475 0.63 0.0025 0.042409
0.0525 0.63 0.0025 0.0418399
0.0575 0.63 0.0025 0.0403528
0.0625 0.63 0.0025 0.0384297
0.0675 0.63 0.0025 0.0360818
0.0725 0.63 0.0025 0.0335411
0.0775 0.63 0.0025 0.0310426
0.0825 0.63 0.0025 0.0286951
0.0875 0.63 0.0025 0.0257483
0.0925 0.63 0.0025 0.0219617
0.0975 0.63 0.0025 0.0166846
0.0025 0.63 0.0075 0.0155345
0.0075 0.63 0.0075 0.0250302
0.0125 0.63 0.0075 0.0316579
0.0175 0.63 0.0075 0.0370743
0.0225 0.63 0.0075 0.0416675
0.0275 0.63 0.0075 0.0464061
0.0325 0.63 0.0075 0.0504252
0.0375 0.63 0.0075 0.0529648
0.0425 0.63 0.0075 0.0545729
0.0475 0.63 0.0075 0.0551895
0.0525 0.63 0.0075 0.0543875
0.0575 0.63 0.0075 0.0519046
0.0625 0.63 0.0075 0.0486974
0.0675 0.63 0.0075 0.0451686
0.0725 0.63 0.0075 0.0413121
0.0775 0.63 0.0075 0.0379206
0.0825 0.63 0.0075 0.0347583
0.0875 0.63 0.0075 0.0313295
0.0925 0.63 0.0075 0.0269712
0.0975 0.63 0.0075 0.0185793
0.0025 0.63 0.0125 0.0159191
0.0075 0.63 0.0125 0.0259153
0.0125 0.63 0.0125 0.0327255
0.0175 0.63 0.0125 0.0376491
0.0225 0.63 0.0125 0.0413868
0.0275 0.63 0.0125 0.0451206
0.0325 0.63 0.0125 0.0486258
0.0375 0.63 0.0125 0.0513588
0.0425 0.63 0.0125 0.0531049
0.0475 0.63 0.0125 0.0535956
0.0525 0.63 0.0125 0.0530365
0.0575 0.63 0.0125 0.0510997
0.0625 0.63 0.0125 0.0480791
0.0675 0.63 0.0125 0.0443624
0.0725 0.63 0.0125 0.0404188
0.0775 0.63 0.0125 0.0369707
0.0825 0.63 0.0125 0.0343162
0.0875 0.63 0.0125 0.0311051
0.0925 0.63 0.0125 0.026489
0.0975 0.63 0.0125 0.0183354
0.0025 0.63 0.0175 0.0144455
0.0075 0.63 0.0175 0.021146
0.0125 0.63 0.0175 0.0262007
0.0175 0.63 0.0175 0.0295001
0.0225 0.63 0.0175 0.0323526
0.0275 0.63 0.0175 0.0351293
0.0325 0.63 0.0175 0.0379629
0.0375 0.63 0.0175 0.0399849
0.0425 0.63 0.0175 0.0405644
0.0475 0.63 0.0175 0.0402884
0.0525 0.63 0.0175 0.0398249
0.0575 0.63 0.0175 0.0386223
0.0625 0.63 0.0175 0.0366097
0.0675 0.63 0.0175 0.0340543
0.0725 0.63 0.0175 0.0313298
0.0775 0.63 0.0175 0.0288328
0.0825 0.63 0.0175 0.0267025
0.0875 0.63 0.0175 0.0243597
0.0925 0.63 0.0175 0.0210628
0.0975 0.63 0.0175 0.0162868
