# alphaMean.water  FACE_DATA 80
#  x  y  z  alphaMean.water
0.0025 0.63 0.0025 0.986043
0.0075 0.63 0.0025 0.97918
0.0125 0.63 0.0025 0.973625
0.0175 0.63 0.0025 0.969592
0.0225 0.63 0.0025 0.966662
0.0275 0.63 0.0025 0.963815
0.0325 0.63 0.0025 0.961675
0.0375 0.63 0.0025 0.959834
0.0425 0.63 0.0025 0.958276
0.0475 0.63 0.0025 0.957591
0.0525 0.63 0.0025 0.95816
0.0575 0.63 0.0025 0.959647
0.0625 0.63 0.0025 0.96157
0.0675 0.63 0.0025 0.963918
0.0725 0.63 0.0025 0.966459
0.0775 0.63 0.0025 0.968957
0.0825 0.63 0.0025 0.971305
0.0875 0.63 0.0025 0.974252
0.0925 0.63 0.0025 0.978038
0.0975 0.63 0.0025 0.983315
0.0025 0.63 0.0075 0.984466
0.0075 0.63 0.0075 0.97497
0.0125 0.63 0.0075 0.968342
0.0175 0.63 0.0075 0.962926
0.0225 0.63 0.0075 0.958332
0.0275 0.63 0.0075 0.953594
0.0325 0.63 0.0075 0.949575
0.0375 0.63 0.0075 0.947035
0.0425 0.63 0.0075 0.945427
0.0475 0.63 0.0075 0.94481
0.0525 0.63 0.0075 0.945612
0.0575 0.63 0.0075 0.948095
0.0625 0.63 0.0075 0.951303
0.0675 0.63 0.0075 0.954831
0.0725 0.63 0.0075 0.958688
0.0775 0.63 0.0075 0.962079
0.0825 0.63 0.0075 0.965242
0.0875 0.63 0.0075 0.968671
0.0925 0.63 0.0075 0.973029
0.0975 0.63 0.0075 0.981421
0.0025 0.63 0.0125 0.984081
0.0075 0.63 0.0125 0.974085
0.0125 0.63 0.0125 0.967274
0.0175 0.63 0.0125 0.962351
0.0225 0.63 0.0125 0.958613
0.0275 0.63 0.0125 0.954879
0.0325 0.63 0.0125 0.951374
0.0375 0.63 0.0125 0.948641
0.0425 0.63 0.0125 0.946895
0.0475 0.63 0.0125 0.946404
0.0525 0.63 0.0125 0.946964
0.0575 0.63 0.0125 0.9489
0.0625 0.63 0.0125 0.951921
0.0675 0.63 0.0125 0.955638
0.0725 0.63 0.0125 0.959581
0.0775 0.63 0.0125 0.963029
0.0825 0.63 0.0125 0.965684
0.0875 0.63 0.0125 0.968895
0.0925 0.63 0.0125 0.973511
0.0975 0.63 0.0125 0.981665
0.0025 0.63 0.0175 0.985555
0.0075 0.63 0.0175 0.978854
0.0125 0.63 0.0175 0.973799
0.0175 0.63 0.0175 0.9705
0.0225 0.63 0.0175 0.967647
0.0275 0.63 0.0175 0.964871
0.0325 0.63 0.0175 0.962037
0.0375 0.63 0.0175 0.960015
0.0425 0.63 0.0175 0.959436
0.0475 0.63 0.0175 0.959712
0.0525 0.63 0.0175 0.960175
0.0575 0.63 0.0175 0.961378
0.0625 0.63 0.0175 0.96339
0.0675 0.63 0.0175 0.965946
0.0725 0.63 0.0175 0.96867
0.0775 0.63 0.0175 0.971167
0.0825 0.63 0.0175 0.973297
0.0875 0.63 0.0175 0.97564
0.0925 0.63 0.0175 0.978937
0.0975 0.63 0.0175 0.983713
