# alphaMean.water  FACE_DATA 80
#  x  y  z  alphaMean.water
0.0025 0.08 0.0025 0.99916
0.0075 0.08 0.0025 0.998286
0.0125 0.08 0.0025 0.995383
0.0175 0.08 0.0025 0.989975
0.0225 0.08 0.0025 0.983905
0.0275 0.08 0.0025 0.980122
0.0325 0.08 0.0025 0.978533
0.0375 0.08 0.0025 0.976019
0.0425 0.08 0.0025 0.972134
0.0475 0.08 0.0025 0.971831
0.0525 0.08 0.0025 0.978175
0.0575 0.08 0.0025 0.981076
0.0625 0.08 0.0025 0.981324
0.0675 0.08 0.0025 0.980872
0.0725 0.08 0.0025 0.983286
0.0775 0.08 0.0025 0.987991
0.0825 0.08 0.0025 0.992925
0.0875 0.08 0.0025 0.996244
0.0925 0.08 0.0025 0.997624
0.0975 0.08 0.0025 0.99847
0.0025 0.08 0.0075 0.99897
0.0075 0.08 0.0075 0.997101
0.0125 0.08 0.0075 0.990455
0.0175 0.08 0.0075 0.977606
0.0225 0.08 0.0075 0.967224
0.0275 0.08 0.0075 0.963189
0.0325 0.08 0.0075 0.961244
0.0375 0.08 0.0075 0.958887
0.0425 0.08 0.0075 0.954132
0.0475 0.08 0.0075 0.953094
0.0525 0.08 0.0075 0.961413
0.0575 0.08 0.0075 0.965011
0.0625 0.08 0.0075 0.963291
0.0675 0.08 0.0075 0.963842
0.0725 0.08 0.0075 0.971168
0.0775 0.08 0.0075 0.980393
0.0825 0.08 0.0075 0.989114
0.0875 0.08 0.0075 0.994642
0.0925 0.08 0.0075 0.996501
0.0975 0.08 0.0075 0.998203
0.0025 0.08 0.0125 0.998901
0.0075 0.08 0.0125 0.996428
0.0125 0.08 0.0125 0.989107
0.0175 0.08 0.0125 0.975624
0.0225 0.08 0.0125 0.965329
0.0275 0.08 0.0125 0.96227
0.0325 0.08 0.0125 0.960596
0.0375 0.08 0.0125 0.960202
0.0425 0.08 0.0125 0.956876
0.0475 0.08 0.0125 0.954511
0.0525 0.08 0.0125 0.954555
0.0575 0.08 0.0125 0.954712
0.0625 0.08 0.0125 0.953455
0.0675 0.08 0.0125 0.956967
0.0725 0.08 0.0125 0.969762
0.0775 0.08 0.0125 0.982762
0.0825 0.08 0.0125 0.990324
0.0875 0.08 0.0125 0.994411
0.0925 0.08 0.0125 0.996509
0.0975 0.08 0.0125 0.998175
0.0025 0.08 0.0175 0.99902
0.0075 0.08 0.0175 0.997477
0.0125 0.08 0.0175 0.993978
0.0175 0.08 0.0175 0.988842
0.0225 0.08 0.0175 0.983304
0.0275 0.08 0.0175 0.978958
0.0325 0.08 0.0175 0.976973
0.0375 0.08 0.0175 0.977692
0.0425 0.08 0.0175 0.977564
0.0475 0.08 0.0175 0.977055
0.0525 0.08 0.0175 0.974646
0.0575 0.08 0.0175 0.969869
0.0625 0.08 0.0175 0.969401
0.0675 0.08 0.0175 0.973869
0.0725 0.08 0.0175 0.981911
0.0775 0.08 0.0175 0.989052
0.0825 0.08 0.0175 0.993426
0.0875 0.08 0.0175 0.995908
0.0925 0.08 0.0175 0.997303
0.0975 0.08 0.0175 0.998413
