# alphaMean.air  FACE_DATA 80
#  x  y  z  alphaMean.air
0.0025 0.08 0.0025 0.000840175
0.0075 0.08 0.0025 0.00171431
0.0125 0.08 0.0025 0.00461701
0.0175 0.08 0.0025 0.0100248
0.0225 0.08 0.0025 0.0160955
0.0275 0.08 0.0025 0.0198784
0.0325 0.08 0.0025 0.0214672
0.0375 0.08 0.0025 0.0239806
0.0425 0.08 0.0025 0.0278661
0.0475 0.08 0.0025 0.0281692
0.0525 0.08 0.0025 0.0218251
0.0575 0.08 0.0025 0.0189243
0.0625 0.08 0.0025 0.018676
0.0675 0.08 0.0025 0.0191285
0.0725 0.08 0.0025 0.0167136
0.0775 0.08 0.0025 0.0120091
0.0825 0.08 0.0025 0.00707542
0.0875 0.08 0.0025 0.00375615
0.0925 0.08 0.0025 0.00237603
0.0975 0.08 0.0025 0.00152963
0.0025 0.08 0.0075 0.00102997
0.0075 0.08 0.0075 0.00289877
0.0125 0.08 0.0075 0.00954512
0.0175 0.08 0.0075 0.022394
0.0225 0.08 0.0075 0.0327765
0.0275 0.08 0.0075 0.0368108
0.0325 0.08 0.0075 0.0387562
0.0375 0.08 0.0075 0.0411125
0.0425 0.08 0.0075 0.0458678
0.0475 0.08 0.0075 0.0469065
0.0525 0.08 0.0075 0.0385874
0.0575 0.08 0.0075 0.0349888
0.0625 0.08 0.0075 0.0367088
0.0675 0.08 0.0075 0.0361582
0.0725 0.08 0.0075 0.0288324
0.0775 0.08 0.0075 0.0196069
0.0825 0.08 0.0075 0.0108859
0.0875 0.08 0.0075 0.00535834
0.0925 0.08 0.0075 0.00349925
0.0975 0.08 0.0075 0.00179717
0.0025 0.08 0.0125 0.0010989
0.0075 0.08 0.0125 0.00357171
0.0125 0.08 0.0125 0.0108926
0.0175 0.08 0.0125 0.0243755
0.0225 0.08 0.0125 0.0346706
0.0275 0.08 0.0125 0.0377297
0.0325 0.08 0.0125 0.0394045
0.0375 0.08 0.0125 0.0397977
0.0425 0.08 0.0125 0.0431239
0.0475 0.08 0.0125 0.0454891
0.0525 0.08 0.0125 0.0454454
0.0575 0.08 0.0125 0.0452879
0.0625 0.08 0.0125 0.046545
0.0675 0.08 0.0125 0.0430329
0.0725 0.08 0.0125 0.0302385
0.0775 0.08 0.0125 0.0172376
0.0825 0.08 0.0125 0.00967559
0.0875 0.08 0.0125 0.0055888
0.0925 0.08 0.0125 0.0034914
0.0975 0.08 0.0125 0.00182495
0.0025 0.08 0.0175 0.000980313
0.0075 0.08 0.0175 0.00252308
0.0125 0.08 0.0175 0.00602238
0.0175 0.08 0.0175 0.0111585
0.0225 0.08 0.0175 0.0166959
0.0275 0.08 0.0175 0.021042
0.0325 0.08 0.0175 0.0230273
0.0375 0.08 0.0175 0.0223082
0.0425 0.08 0.0175 0.0224362
0.0475 0.08 0.0175 0.022945
0.0525 0.08 0.0175 0.0253536
0.0575 0.08 0.0175 0.0301306
0.0625 0.08 0.0175 0.0305988
0.0675 0.08 0.0175 0.0261306
0.0725 0.08 0.0175 0.0180885
0.0775 0.08 0.0175 0.0109481
0.0825 0.08 0.0175 0.00657357
0.0875 0.08 0.0175 0.0040922
0.0925 0.08 0.0175 0.0026972
0.0975 0.08 0.0175 0.00158699
