# pMean  FACE_DATA 80
#  x  y  z  pMean
0.0025 0.08 0.0025 108658
0.0075 0.08 0.0025 108657
0.0125 0.08 0.0025 108655
0.0175 0.08 0.0025 108652
0.0225 0.08 0.0025 108649
0.0275 0.08 0.0025 108646
0.0325 0.08 0.0025 108643
0.0375 0.08 0.0025 108641
0.0425 0.08 0.0025 108639
0.0475 0.08 0.0025 108638
0.0525 0.08 0.0025 108638
0.0575 0.08 0.0025 108639
0.0625 0.08 0.0025 108640
0.0675 0.08 0.0025 108642
0.0725 0.08 0.0025 108644
0.0775 0.08 0.0025 108646
0.0825 0.08 0.0025 108648
0.0875 0.08 0.0025 108651
0.0925 0.08 0.0025 108653
0.0975 0.08 0.0025 108655
0.0025 0.08 0.0075 108658
0.0075 0.08 0.0075 108656
0.0125 0.08 0.0075 108653
0.0175 0.08 0.0075 108650
0.0225 0.08 0.0075 108647
0.0275 0.08 0.0075 108644
0.0325 0.08 0.0075 108642
0.0375 0.08 0.0075 108640
0.0425 0.08 0.0075 108638
0.0475 0.08 0.0075 108637
0.0525 0.08 0.0075 108637
0.0575 0.08 0.0075 108637
0.0625 0.08 0.0075 108639
0.0675 0.08 0.0075 108640
0.0725 0.08 0.0075 108642
0.0775 0.08 0.0075 108645
0.0825 0.08 0.0075 108647
0.0875 0.08 0.0075 108650
0.0925 0.08 0.0075 108652
0.0975 0.08 0.0075 108654
0.0025 0.08 0.0125 108657
0.0075 0.08 0.0125 108655
0.0125 0.08 0.0125 108653
0.0175 0.08 0.0125 108650
0.0225 0.08 0.0125 108647
0.0275 0.08 0.0125 108644
0.0325 0.08 0.0125 108642
0.0375 0.08 0.0125 108640
0.0425 0.08 0.0125 108638
0.0475 0.08 0.0125 108637
0.0525 0.08 0.0125 108637
0.0575 0.08 0.0125 108637
0.0625 0.08 0.0125 108638
0.0675 0.08 0.0125 108640
0.0725 0.08 0.0125 108642
0.0775 0.08 0.0125 108644
0.0825 0.08 0.0125 108647
0.0875 0.08 0.0125 108649
0.0925 0.08 0.0125 108652
0.0975 0.08 0.0125 108654
0.0025 0.08 0.0175 108658
0.0075 0.08 0.0175 108656
0.0125 0.08 0.0175 108654
0.0175 0.08 0.0175 108651
0.0225 0.08 0.0175 108649
0.0275 0.08 0.0175 108646
0.0325 0.08 0.0175 108643
0.0375 0.08 0.0175 108641
0.0425 0.08 0.0175 108639
0.0475 0.08 0.0175 108638
0.0525 0.08 0.0175 108638
0.0575 0.08 0.0175 108639
0.0625 0.08 0.0175 108640
0.0675 0.08 0.0175 108642
0.0725 0.08 0.0175 108644
0.0775 0.08 0.0175 108646
0.0825 0.08 0.0175 108648
0.0875 0.08 0.0175 108650
0.0925 0.08 0.0175 108653
0.0975 0.08 0.0175 108655
