# pMean  FACE_DATA 80
#  x  y  z  pMean
0.0025 0.63 0.0025 103443
0.0075 0.63 0.0025 103442
0.0125 0.63 0.0025 103440
0.0175 0.63 0.0025 103438
0.0225 0.63 0.0025 103435
0.0275 0.63 0.0025 103433
0.0325 0.63 0.0025 103432
0.0375 0.63 0.0025 103431
0.0425 0.63 0.0025 103430
0.0475 0.63 0.0025 103431
0.0525 0.63 0.0025 103431
0.0575 0.63 0.0025 103432
0.0625 0.63 0.0025 103433
0.0675 0.63 0.0025 103434
0.0725 0.63 0.0025 103436
0.0775 0.63 0.0025 103438
0.0825 0.63 0.0025 103440
0.0875 0.63 0.0025 103441
0.0925 0.63 0.0025 103443
0.0975 0.63 0.0025 103444
0.0025 0.63 0.0075 103443
0.0075 0.63 0.0075 103442
0.0125 0.63 0.0075 103439
0.0175 0.63 0.0075 103437
0.0225 0.63 0.0075 103435
0.0275 0.63 0.0075 103432
0.0325 0.63 0.0075 103431
0.0375 0.63 0.0075 103430
0.0425 0.63 0.0075 103430
0.0475 0.63 0.0075 103430
0.0525 0.63 0.0075 103430
0.0575 0.63 0.0075 103431
0.0625 0.63 0.0075 103432
0.0675 0.63 0.0075 103434
0.0725 0.63 0.0075 103435
0.0775 0.63 0.0075 103437
0.0825 0.63 0.0075 103439
0.0875 0.63 0.0075 103441
0.0925 0.63 0.0075 103442
0.0975 0.63 0.0075 103444
0.0025 0.63 0.0125 103443
0.0075 0.63 0.0125 103441
0.0125 0.63 0.0125 103439
0.0175 0.63 0.0125 103437
0.0225 0.63 0.0125 103434
0.0275 0.63 0.0125 103432
0.0325 0.63 0.0125 103431
0.0375 0.63 0.0125 103430
0.0425 0.63 0.0125 103430
0.0475 0.63 0.0125 103430
0.0525 0.63 0.0125 103431
0.0575 0.63 0.0125 103431
0.0625 0.63 0.0125 103432
0.0675 0.63 0.0125 103434
0.0725 0.63 0.0125 103435
0.0775 0.63 0.0125 103437
0.0825 0.63 0.0125 103439
0.0875 0.63 0.0125 103441
0.0925 0.63 0.0125 103442
0.0975 0.63 0.0125 103444
0.0025 0.63 0.0175 103443
0.0075 0.63 0.0175 103442
0.0125 0.63 0.0175 103440
0.0175 0.63 0.0175 103438
0.0225 0.63 0.0175 103435
0.0275 0.63 0.0175 103433
0.0325 0.63 0.0175 103432
0.0375 0.63 0.0175 103431
0.0425 0.63 0.0175 103430
0.0475 0.63 0.0175 103431
0.0525 0.63 0.0175 103431
0.0575 0.63 0.0175 103432
0.0625 0.63 0.0175 103433
0.0675 0.63 0.0175 103434
0.0725 0.63 0.0175 103436
0.0775 0.63 0.0175 103438
0.0825 0.63 0.0175 103440
0.0875 0.63 0.0175 103441
0.0925 0.63 0.0175 103443
0.0975 0.63 0.0175 103444
