# UMean.water  FACE_DATA 80
#  x  y  z  UMean.water_x  UMean.water_y  UMean.water_z  
0.0025 0.63 0.0025 0.00184118 -0.175834 -0.00286174
0.0075 0.63 0.0025 -0.000769456 -0.136397 -7.87604e-05
0.0125 0.63 0.0025 -0.00182019 -0.0878622 6.68807e-05
0.0175 0.63 0.0025 -0.00338823 -0.0375698 -9.42594e-06
0.0225 0.63 0.0025 -0.00474145 0.00911213 -0.00047346
0.0275 0.63 0.0025 -0.00518007 0.0510272 -0.00134925
0.0325 0.63 0.0025 -0.0041855 0.0837447 -0.00257387
0.0375 0.63 0.0025 -0.00153346 0.10808 -0.00312464
0.0425 0.63 0.0025 0.00113105 0.124631 -0.00300029
0.0475 0.63 0.0025 0.00313144 0.132021 -0.00290452
0.0525 0.63 0.0025 0.00407092 0.128099 -0.00301915
0.0575 0.63 0.0025 0.00453421 0.114938 -0.00301716
0.0625 0.63 0.0025 0.00403162 0.0931948 -0.00281292
0.0675 0.63 0.0025 0.00374166 0.0620596 -0.00255578
0.0725 0.63 0.0025 0.00381476 0.0244051 -0.00208586
0.0775 0.63 0.0025 0.00376072 -0.0178319 -0.000932516
0.0825 0.63 0.0025 0.00261499 -0.0642561 0.000576483
0.0875 0.63 0.0025 -0.000444097 -0.10986 0.000782329
0.0925 0.63 0.0025 -0.00284107 -0.150319 -0.000856619
0.0975 0.63 0.0025 -0.00362596 -0.181358 -0.00511532
0.0025 0.63 0.0075 -0.00268201 -0.172552 0.000895083
0.0075 0.63 0.0075 -0.00346741 -0.131298 0.00206485
0.0125 0.63 0.0075 -0.00409446 -0.0820138 0.00210766
0.0175 0.63 0.0075 -0.00415328 -0.0294286 0.00240846
0.0225 0.63 0.0075 -0.00398732 0.021325 0.00217915
0.0275 0.63 0.0075 -0.00264616 0.0677743 0.000890488
0.0325 0.63 0.0075 -0.000811759 0.106198 -0.00108921
0.0375 0.63 0.0075 0.00122932 0.135242 -0.0022694
0.0425 0.63 0.0075 0.00294949 0.15368 -0.00254939
0.0475 0.63 0.0075 0.00424525 0.161001 -0.00246514
0.0525 0.63 0.0075 0.00462877 0.156225 -0.00235714
0.0575 0.63 0.0075 0.00465342 0.140306 -0.00236469
0.0625 0.63 0.0075 0.00438926 0.114635 -0.00228259
0.0675 0.63 0.0075 0.00467003 0.0797406 -0.00199435
0.0725 0.63 0.0075 0.00539462 0.0377628 -0.00111195
0.0775 0.63 0.0075 0.00610991 -0.00857276 0.000117724
0.0825 0.63 0.0075 0.00620904 -0.0569454 0.0026438
0.0875 0.63 0.0075 0.00551172 -0.103238 0.0047223
0.0925 0.63 0.0075 0.00364693 -0.144208 0.00386777
0.0975 0.63 0.0075 0.00267394 -0.179331 -0.000921174
0.0025 0.63 0.0125 -0.00227954 -0.172103 0.00228015
0.0075 0.63 0.0125 -0.00220696 -0.130802 0.000292786
0.0125 0.63 0.0125 -0.0021379 -0.0823334 0.000650301
0.0175 0.63 0.0125 -0.00134126 -0.0315133 0.000289801
0.0225 0.63 0.0125 -0.000117356 0.0173725 -0.000406816
0.0275 0.63 0.0125 0.0016184 0.0616436 -0.0019897
0.0325 0.63 0.0125 0.00315193 0.100093 -0.00397565
0.0375 0.63 0.0125 0.00392827 0.130499 -0.00508996
0.0425 0.63 0.0125 0.00385913 0.14985 -0.005441
0.0475 0.63 0.0125 0.00320613 0.156961 -0.00541098
0.0525 0.63 0.0125 0.00209611 0.151681 -0.00526383
0.0575 0.63 0.0125 0.00128742 0.13463 -0.00529917
0.0625 0.63 0.0125 0.000718151 0.10771 -0.00509972
0.0675 0.63 0.0125 0.00124941 0.071441 -0.0044482
0.0725 0.63 0.0125 0.00207269 0.0286543 -0.0028999
0.0775 0.63 0.0125 0.0024947 -0.0168709 -0.000964109
0.0825 0.63 0.0125 0.00276325 -0.0629855 0.00150757
0.0875 0.63 0.0125 0.00337008 -0.106433 0.00342379
0.0925 0.63 0.0125 0.0035075 -0.14552 0.00230794
0.0975 0.63 0.0125 0.00319233 -0.178533 0.000982806
0.0025 0.63 0.0175 0.00357457 -0.176142 0.00510514
0.0075 0.63 0.0175 0.00356039 -0.138753 0.00183547
0.0125 0.63 0.0175 0.00497579 -0.0937762 0.00178334
0.0175 0.63 0.0175 0.0057728 -0.0483229 0.00172309
0.0225 0.63 0.0175 0.00744302 -0.0047777 0.00144493
0.0275 0.63 0.0175 0.00831889 0.033968 0.00048882
0.0325 0.63 0.0175 0.00787462 0.069241 -0.00074798
0.0375 0.63 0.0175 0.00630455 0.0990538 -0.00133854
0.0425 0.63 0.0175 0.00406073 0.117855 -0.00138659
0.0475 0.63 0.0175 0.00155464 0.12338 -0.00118483
0.0525 0.63 0.0175 -0.000823095 0.117509 -0.00100396
0.0575 0.63 0.0175 -0.00300093 0.101134 -0.00112183
0.0625 0.63 0.0175 -0.00485868 0.0752955 -0.00127272
0.0675 0.63 0.0175 -0.00572175 0.0403566 -0.000996856
0.0725 0.63 0.0175 -0.00633349 0.0011828 -7.74472e-05
0.0775 0.63 0.0175 -0.00666499 -0.039425 0.000628719
0.0825 0.63 0.0175 -0.00618037 -0.0804962 0.00177529
0.0875 0.63 0.0175 -0.00465585 -0.118735 0.00313259
0.0925 0.63 0.0175 -0.00191348 -0.153862 0.0030366
0.0975 0.63 0.0175 -0.00147945 -0.180285 0.00425009
