# UMean.water  FACE_DATA 80
#  x  y  z  UMean.water_x  UMean.water_y  UMean.water_z  
0.0025 0.08 0.0025 0.00323694 -0.0987864 -0.00497975
0.0075 0.08 0.0025 0.00315348 -0.0731178 -0.00106286
0.0125 0.08 0.0025 0.00337244 -0.0392188 -0.000570434
0.0175 0.08 0.0025 0.00381396 -0.00526807 -0.000663213
0.0225 0.08 0.0025 0.00312492 0.024043 -0.00173084
0.0275 0.08 0.0025 0.00217376 0.0467868 -0.00198649
0.0325 0.08 0.0025 0.000296477 0.0668608 -0.00209076
0.0375 0.08 0.0025 -0.0023589 0.086613 -0.00168911
0.0425 0.08 0.0025 -0.00562464 0.0996282 -0.000892048
0.0475 0.08 0.0025 -0.00998474 0.0992188 -0.000239304
0.0525 0.08 0.0025 -0.0144936 0.085131 0.000481005
0.0575 0.08 0.0025 -0.0174643 0.0644631 0.00160598
0.0625 0.08 0.0025 -0.0196774 0.0422841 0.00246397
0.0675 0.08 0.0025 -0.0199707 0.0174687 0.0018215
0.0725 0.08 0.0025 -0.0197396 -0.00815234 5.80321e-05
0.0775 0.08 0.0025 -0.018305 -0.0361857 -0.00121262
0.0825 0.08 0.0025 -0.0162273 -0.0674626 -0.00248277
0.0875 0.08 0.0025 -0.0128365 -0.101342 -0.00389818
0.0925 0.08 0.0025 -0.00793041 -0.132562 -0.00502142
0.0975 0.08 0.0025 -0.00362497 -0.156261 -0.00551644
0.0025 0.08 0.0075 -0.00350494 -0.103822 0.00279126
0.0075 0.08 0.0075 -0.0031617 -0.0722826 0.00809832
0.0125 0.08 0.0075 -0.00510939 -0.0321414 0.00651592
0.0175 0.08 0.0075 -0.00394481 0.00902971 0.0042383
0.0225 0.08 0.0075 -0.00319004 0.0426711 0.0016198
0.0275 0.08 0.0075 -0.00212058 0.0666869 0.000214348
0.0325 0.08 0.0075 -0.00262469 0.08899 0.000132888
0.0375 0.08 0.0075 -0.0038695 0.111097 0.00155356
0.0425 0.08 0.0075 -0.00571073 0.126903 0.00292422
0.0475 0.08 0.0075 -0.00857033 0.127978 0.0038488
0.0525 0.08 0.0075 -0.0131112 0.114397 0.00479299
0.0575 0.08 0.0075 -0.016666 0.0935208 0.00632634
0.0625 0.08 0.0075 -0.0183047 0.0698263 0.00687746
0.0675 0.08 0.0075 -0.0169093 0.0425024 0.00525598
0.0725 0.08 0.0075 -0.0146137 0.00947695 0.00275251
0.0775 0.08 0.0075 -0.011727 -0.0268968 0.00136508
0.0825 0.08 0.0075 -0.0089831 -0.0656484 0.000128489
0.0875 0.08 0.0075 -0.00537171 -0.10495 -0.00141288
0.0925 0.08 0.0075 -0.00328439 -0.139577 -0.00119241
0.0975 0.08 0.0075 0.000973077 -0.166244 -0.00090519
0.0025 0.08 0.0125 -0.0030669 -0.107206 0.00258634
0.0075 0.08 0.0125 -0.00193487 -0.0761355 0.00340106
0.0125 0.08 0.0125 -0.00326358 -0.0375797 0.00118707
0.0175 0.08 0.0125 -0.00236109 0.00255831 -0.00287198
0.0225 0.08 0.0125 -0.00100888 0.0381228 -0.00563506
0.0275 0.08 0.0125 0.000493428 0.0648366 -0.00615321
0.0325 0.08 0.0125 0.00080067 0.0885675 -0.00497842
0.0375 0.08 0.0125 0.0012218 0.106938 -0.00332669
0.0425 0.08 0.0125 0.00138548 0.122573 -0.00162484
0.0475 0.08 0.0125 -0.000681499 0.129326 -0.00121407
0.0525 0.08 0.0125 -0.00539853 0.123762 -0.000720522
0.0575 0.08 0.0125 -0.00956995 0.111088 0.00105923
0.0625 0.08 0.0125 -0.0112752 0.0919953 0.00249563
0.0675 0.08 0.0125 -0.0109085 0.0617813 0.0012053
0.0725 0.08 0.0125 -0.00934263 0.0233884 -0.00247849
0.0775 0.08 0.0125 -0.00788787 -0.0183472 -0.00538893
0.0825 0.08 0.0125 -0.006954 -0.060237 -0.00689054
0.0875 0.08 0.0125 -0.00532597 -0.0998837 -0.00613908
0.0925 0.08 0.0125 -0.00365545 -0.135723 -0.00570768
0.0975 0.08 0.0125 0.00103893 -0.162292 -0.00104225
0.0025 0.08 0.0175 0.00203652 -0.101905 0.00737046
0.0075 0.08 0.0175 0.00741749 -0.0781129 0.00838995
0.0125 0.08 0.0175 0.0125634 -0.0463513 0.00591628
0.0175 0.08 0.0175 0.0129924 -0.01434 0.00137554
0.0225 0.08 0.0175 0.0100261 0.0175831 -0.0011653
0.0275 0.08 0.0175 0.00765941 0.0462072 -0.00158806
0.0325 0.08 0.0175 0.00644286 0.0705474 -0.000590896
0.0375 0.08 0.0175 0.0067251 0.0853736 0.00078685
0.0425 0.08 0.0175 0.00687511 0.0943308 0.00186445
0.0475 0.08 0.0175 0.00472014 0.0996667 0.00222304
0.0525 0.08 0.0175 0.000502714 0.101675 0.00264663
0.0575 0.08 0.0175 -0.00347582 0.0975212 0.00332408
0.0625 0.08 0.0175 -0.00482008 0.0834922 0.00342361
0.0675 0.08 0.0175 -0.00545676 0.0533781 0.00199985
0.0725 0.08 0.0175 -0.00721268 0.0173897 0.000168837
0.0775 0.08 0.0175 -0.00936207 -0.0203211 0.000315759
0.0825 0.08 0.0175 -0.0104518 -0.0589728 0.000539591
0.0875 0.08 0.0175 -0.0103703 -0.0955805 0.000928685
0.0925 0.08 0.0175 -0.008171 -0.129956 0.00125057
0.0975 0.08 0.0175 -0.00516067 -0.154527 0.00503856
