# UMean.air  FACE_DATA 80
#  x  y  z  UMean.air_x  UMean.air_y  UMean.air_z  
0.0025 0.08 0.0025 0.00768881 0.131779 -0.0028041
0.0075 0.08 0.0025 0.012602 0.157406 0.00181977
0.0125 0.08 0.0025 0.0152384 0.191001 0.00193859
0.0175 0.08 0.0025 0.0162718 0.224502 0.00215003
0.0225 0.08 0.0025 0.0154274 0.253994 0.000951164
0.0275 0.08 0.0025 0.0130633 0.276904 0.000350364
0.0325 0.08 0.0025 0.00990724 0.297561 0.000236564
0.0375 0.08 0.0025 0.00501649 0.317814 0.0010601
0.0425 0.08 0.0025 -0.000956356 0.330129 0.00200682
0.0475 0.08 0.0025 -0.00807921 0.329755 0.00233809
0.0525 0.08 0.0025 -0.0163468 0.316438 0.00306587
0.0575 0.08 0.0025 -0.0225 0.296788 0.00452198
0.0625 0.08 0.0025 -0.0267686 0.277042 0.00564545
0.0675 0.08 0.0025 -0.0280484 0.251583 0.00520266
0.0725 0.08 0.0025 -0.0287213 0.225383 0.00355353
0.0775 0.08 0.0025 -0.0285961 0.196643 0.00205457
0.0825 0.08 0.0025 -0.0272773 0.165276 0.000579127
0.0875 0.08 0.0025 -0.0245889 0.131013 -0.00135686
0.0925 0.08 0.0025 -0.01809 0.0990688 -0.00268531
0.0975 0.08 0.0025 -0.00840514 0.0763617 -0.00366619
0.0025 0.08 0.0075 0.00228202 0.126445 0.00521719
0.0075 0.08 0.0075 0.00797735 0.157215 0.011649
0.0125 0.08 0.0075 0.00789396 0.197493 0.00957345
0.0175 0.08 0.0075 0.00933271 0.238322 0.00693603
0.0225 0.08 0.0075 0.00895716 0.272285 0.00338592
0.0275 0.08 0.0075 0.00763768 0.296904 0.00133531
0.0325 0.08 0.0075 0.00583978 0.320014 0.00119084
0.0375 0.08 0.0075 0.0030427 0.342661 0.00277478
0.0425 0.08 0.0075 -0.0017847 0.357189 0.00437998
0.0475 0.08 0.0075 -0.0079621 0.357839 0.00547767
0.0525 0.08 0.0075 -0.0160482 0.344439 0.0067717
0.0575 0.08 0.0075 -0.0228814 0.324491 0.00910486
0.0625 0.08 0.0075 -0.0266884 0.303272 0.0107431
0.0675 0.08 0.0075 -0.0259494 0.27607 0.00924139
0.0725 0.08 0.0075 -0.0244952 0.243059 0.00693774
0.0775 0.08 0.0075 -0.0228911 0.206912 0.00574741
0.0825 0.08 0.0075 -0.0210836 0.167816 0.00446579
0.0875 0.08 0.0075 -0.01717 0.128504 0.00222838
0.0925 0.08 0.0075 -0.0138665 0.0944026 0.00148589
0.0975 0.08 0.0075 -0.00455967 0.0680971 0.00083146
0.0025 0.08 0.0125 0.00301784 0.12326 0.00217285
0.0075 0.08 0.0125 0.00968618 0.153765 0.00222189
0.0125 0.08 0.0125 0.0093331 0.191584 -0.000481724
0.0175 0.08 0.0125 0.00972764 0.232364 -0.00595203
0.0225 0.08 0.0125 0.00967687 0.269037 -0.0096584
0.0275 0.08 0.0125 0.00887193 0.296681 -0.0102808
0.0325 0.08 0.0125 0.0077947 0.320651 -0.00889534
0.0375 0.08 0.0125 0.00701863 0.339116 -0.00714001
0.0425 0.08 0.0125 0.00526003 0.3534 -0.00520636
0.0475 0.08 0.0125 -0.000299359 0.359297 -0.00487157
0.0525 0.08 0.0125 -0.00881221 0.353474 -0.00414389
0.0575 0.08 0.0125 -0.0160885 0.341275 -0.00160394
0.0625 0.08 0.0125 -0.0201287 0.324263 0.000640725
0.0675 0.08 0.0125 -0.0206533 0.294199 -0.000734648
0.0725 0.08 0.0125 -0.0195297 0.256168 -0.00411691
0.0775 0.08 0.0125 -0.0192258 0.214826 -0.00649239
0.0825 0.08 0.0125 -0.0193209 0.173305 -0.00771916
0.0875 0.08 0.0125 -0.0174207 0.133741 -0.00715161
0.0925 0.08 0.0125 -0.0146438 0.0986456 -0.00773458
0.0975 0.08 0.0125 -0.00455067 0.0716382 -0.00316142
0.0025 0.08 0.0175 0.00693916 0.1286 0.0061301
0.0075 0.08 0.0175 0.0171185 0.151787 0.00625691
0.0125 0.08 0.0175 0.0233212 0.183035 0.00311749
0.0175 0.08 0.0175 0.0231058 0.216347 -0.0022331
0.0225 0.08 0.0175 0.0201128 0.249246 -0.00478265
0.0275 0.08 0.0175 0.0162059 0.278732 -0.00504183
0.0325 0.08 0.0175 0.0129952 0.303692 -0.00373803
0.0375 0.08 0.0175 0.011752 0.318457 -0.00232682
0.0425 0.08 0.0175 0.0095193 0.325783 -0.00124785
0.0475 0.08 0.0175 0.00397396 0.330659 -0.00104298
0.0525 0.08 0.0175 -0.00344882 0.33205 -0.00064751
0.0575 0.08 0.0175 -0.0101203 0.327977 0.000107891
0.0625 0.08 0.0175 -0.0142161 0.31534 0.000324539
0.0675 0.08 0.0175 -0.016278 0.285203 -0.000936889
0.0725 0.08 0.0175 -0.0179767 0.249964 -0.00262503
0.0775 0.08 0.0175 -0.020518 0.212796 -0.0024727
0.0825 0.08 0.0175 -0.0218621 0.174105 -0.00197487
0.0875 0.08 0.0175 -0.0218931 0.137796 -0.00139568
0.0925 0.08 0.0175 -0.0180951 0.103077 -0.0013624
0.0975 0.08 0.0175 -0.00968412 0.0779087 0.00246409
