# UMean.air  FACE_DATA 80
#  x  y  z  UMean.air_x  UMean.air_y  UMean.air_z  
0.0025 0.63 0.0025 0.00545808 0.0493023 -0.00223457
0.0075 0.63 0.0025 0.00843762 0.08796 0.00081793
0.0125 0.63 0.0025 0.0101307 0.136008 0.000831886
0.0175 0.63 0.0025 0.00851218 0.186323 0.00101309
0.0225 0.63 0.0025 0.00576738 0.233672 0.000888176
0.0275 0.63 0.0025 0.00322012 0.275826 0.000200856
0.0325 0.63 0.0025 0.00207484 0.308456 -0.00075315
0.0375 0.63 0.0025 0.00251022 0.332848 -0.00117261
0.0425 0.63 0.0025 0.00325354 0.349358 -0.00105927
0.0475 0.63 0.0025 0.00337117 0.356449 -0.000941604
0.0525 0.63 0.0025 0.00227495 0.352278 -0.00106085
0.0575 0.63 0.0025 0.000942875 0.338728 -0.00121894
0.0625 0.63 0.0025 -0.00138004 0.316771 -0.00113151
0.0675 0.63 0.0025 -0.00346217 0.285708 -0.000920957
0.0725 0.63 0.0025 -0.00461497 0.248273 -0.000468938
0.0775 0.63 0.0025 -0.00512208 0.206027 0.000535758
0.0825 0.63 0.0025 -0.00606464 0.159597 0.00192672
0.0875 0.63 0.0025 -0.00866309 0.114137 0.00200196
0.0925 0.63 0.0025 -0.00953497 0.0740903 0.000544883
0.0975 0.63 0.0025 -0.00660272 0.0436169 -0.00411891
0.0025 0.63 0.0075 0.00134418 0.0525457 0.0018201
0.0075 0.63 0.0075 0.00581564 0.0930197 0.0033938
0.0125 0.63 0.0075 0.00777052 0.141783 0.00301927
0.0175 0.63 0.0075 0.00827398 0.194269 0.00349458
0.0225 0.63 0.0075 0.00726319 0.245617 0.00338114
0.0275 0.63 0.0075 0.00666744 0.292381 0.00209563
0.0325 0.63 0.0075 0.00597519 0.330898 0.000389021
0.0375 0.63 0.0075 0.00531988 0.360022 -0.000646642
0.0425 0.63 0.0075 0.00476342 0.378424 -0.000943917
0.0475 0.63 0.0075 0.00424226 0.385516 -0.00094358
0.0525 0.63 0.0075 0.00270356 0.3805 -0.00079292
0.0575 0.63 0.0075 0.000899895 0.3643 -0.000953105
0.0625 0.63 0.0075 -0.0011504 0.338494 -0.00109791
0.0675 0.63 0.0075 -0.00249807 0.303671 -0.000932816
0.0725 0.63 0.0075 -0.00290224 0.26187 -5.83669e-05
0.0775 0.63 0.0075 -0.00254412 0.215416 0.00112992
0.0825 0.63 0.0075 -0.00227534 0.166888 0.00363295
0.0875 0.63 0.0075 -0.00236678 0.12064 0.00566018
0.0925 0.63 0.0075 -0.00344043 0.080119 0.00510671
0.0975 0.63 0.0075 -0.000850923 0.0456124 -5.1931e-05
0.0025 0.63 0.0125 0.00175569 0.0530416 0.00209574
0.0075 0.63 0.0125 0.00689386 0.0936146 -0.000412311
0.0125 0.63 0.0125 0.0093194 0.141629 -0.00014406
0.0175 0.63 0.0125 0.0108656 0.19245 -0.000838097
0.0225 0.63 0.0125 0.0111635 0.241839 -0.00187486
0.0275 0.63 0.0125 0.0109073 0.28655 -0.00385212
0.0325 0.63 0.0125 0.00980908 0.32517 -0.00576249
0.0375 0.63 0.0125 0.00783451 0.355531 -0.00664219
0.0425 0.63 0.0125 0.00536735 0.374701 -0.00692709
0.0475 0.63 0.0125 0.00287583 0.381498 -0.00695482
0.0525 0.63 0.0125 -7.30036e-05 0.376071 -0.00674606
0.0575 0.63 0.0125 -0.00252525 0.358921 -0.00684084
0.0625 0.63 0.0125 -0.00469107 0.332003 -0.00680181
0.0675 0.63 0.0125 -0.00561053 0.295951 -0.00619886
0.0725 0.63 0.0125 -0.00565685 0.253216 -0.00467952
0.0775 0.63 0.0125 -0.00586992 0.207316 -0.00276352
0.0825 0.63 0.0125 -0.00592726 0.160884 -0.000303642
0.0875 0.63 0.0125 -0.0049969 0.11741 0.00180661
0.0925 0.63 0.0125 -0.00386107 0.0787223 0.000787656
0.0975 0.63 0.0125 -0.000360286 0.0462897 0.000253098
0.0025 0.63 0.0175 0.00708817 0.0489754 0.00456346
0.0075 0.63 0.0175 0.0122333 0.0857926 0.000762241
0.0125 0.63 0.0175 0.0162429 0.130432 0.000717716
0.0175 0.63 0.0175 0.0175575 0.176104 0.000319556
0.0225 0.63 0.0175 0.0186037 0.220118 -0.000322793
0.0275 0.63 0.0175 0.0176201 0.259207 -0.00152429
0.0325 0.63 0.0175 0.01453 0.294712 -0.0024577
0.0375 0.63 0.0175 0.00984835 0.324438 -0.00271151
0.0425 0.63 0.0175 0.00501656 0.342985 -0.00264006
0.0475 0.63 0.0175 0.000894281 0.348201 -0.00243754
0.0525 0.63 0.0175 -0.00287883 0.342188 -0.00228477
0.0575 0.63 0.0175 -0.0064121 0.325844 -0.00249972
0.0625 0.63 0.0175 -0.00967746 0.300132 -0.00275855
0.0675 0.63 0.0175 -0.0118899 0.265496 -0.00262929
0.0725 0.63 0.0175 -0.0134719 0.226188 -0.00178802
0.0775 0.63 0.0175 -0.0149419 0.185149 -0.00106824
0.0825 0.63 0.0175 -0.0148019 0.143629 -2.62101e-05
0.0875 0.63 0.0175 -0.0130082 0.105126 0.00156503
0.0925 0.63 0.0175 -0.0087053 0.0704361 0.00158813
0.0975 0.63 0.0175 -0.00437677 0.044446 0.00344548
