# alphaMean.water  FACE_DATA 80
#  x  y  z  alphaMean.water
0.0025 0.08 0.0025 0.990132
0.0075 0.08 0.0025 0.992923
0.0125 0.08 0.0025 0.994594
0.0175 0.08 0.0025 0.991332
0.0225 0.08 0.0025 0.982095
0.0275 0.08 0.0025 0.97133
0.0325 0.08 0.0025 0.962484
0.0375 0.08 0.0025 0.962969
0.0425 0.08 0.0025 0.966394
0.0475 0.08 0.0025 0.969314
0.0525 0.08 0.0025 0.970068
0.0575 0.08 0.0025 0.968503
0.0625 0.08 0.0025 0.965751
0.0675 0.08 0.0025 0.968642
0.0725 0.08 0.0025 0.977622
0.0775 0.08 0.0025 0.98704
0.0825 0.08 0.0025 0.992584
0.0875 0.08 0.0025 0.992693
0.0925 0.08 0.0025 0.990318
0.0975 0.08 0.0025 0.986888
0.0025 0.08 0.0075 0.989421
0.0075 0.08 0.0075 0.982246
0.0125 0.08 0.0075 0.990521
0.0175 0.08 0.0075 0.99156
0.0225 0.08 0.0075 0.981969
0.0275 0.08 0.0075 0.967254
0.0325 0.08 0.0075 0.955208
0.0375 0.08 0.0075 0.953292
0.0425 0.08 0.0075 0.955582
0.0475 0.08 0.0075 0.959008
0.0525 0.08 0.0075 0.960619
0.0575 0.08 0.0075 0.959516
0.0625 0.08 0.0075 0.957567
0.0675 0.08 0.0075 0.962754
0.0725 0.08 0.0075 0.975329
0.0775 0.08 0.0075 0.987853
0.0825 0.08 0.0075 0.99272
0.0875 0.08 0.0075 0.988219
0.0925 0.08 0.0075 0.977862
0.0975 0.08 0.0075 0.986097
0.0025 0.08 0.0125 0.989523
0.0075 0.08 0.0125 0.981999
0.0125 0.08 0.0125 0.988739
0.0175 0.08 0.0125 0.990725
0.0225 0.08 0.0125 0.981922
0.0275 0.08 0.0125 0.967728
0.0325 0.08 0.0125 0.954815
0.0375 0.08 0.0125 0.952174
0.0425 0.08 0.0125 0.953233
0.0475 0.08 0.0125 0.956238
0.0525 0.08 0.0125 0.958215
0.0575 0.08 0.0125 0.958146
0.0625 0.08 0.0125 0.956851
0.0675 0.08 0.0125 0.962286
0.0725 0.08 0.0125 0.975532
0.0775 0.08 0.0125 0.988283
0.0825 0.08 0.0125 0.993824
0.0875 0.08 0.0125 0.990101
0.0925 0.08 0.0125 0.979422
0.0975 0.08 0.0125 0.985929
0.0025 0.08 0.0175 0.988869
0.0075 0.08 0.0175 0.99148
0.0125 0.08 0.0175 0.992767
0.0175 0.08 0.0175 0.990024
0.0225 0.08 0.0175 0.982299
0.0275 0.08 0.0175 0.971873
0.0325 0.08 0.0175 0.96242
0.0375 0.08 0.0175 0.961863
0.0425 0.08 0.0175 0.963375
0.0475 0.08 0.0175 0.965441
0.0525 0.08 0.0175 0.966509
0.0575 0.08 0.0175 0.966214
0.0625 0.08 0.0175 0.965141
0.0675 0.08 0.0175 0.968144
0.0725 0.08 0.0175 0.977923
0.0775 0.08 0.0175 0.98775
0.0825 0.08 0.0175 0.993874
0.0875 0.08 0.0175 0.99391
0.0925 0.08 0.0175 0.991061
0.0975 0.08 0.0175 0.987636
