# alphaMean.air  FACE_DATA 80
#  x  y  z  alphaMean.air
0.0025 0.08 0.0025 0.00986754
0.0075 0.08 0.0025 0.00707692
0.0125 0.08 0.0025 0.00540596
0.0175 0.08 0.0025 0.00866764
0.0225 0.08 0.0025 0.017905
0.0275 0.08 0.0025 0.0286701
0.0325 0.08 0.0025 0.0375164
0.0375 0.08 0.0025 0.0370314
0.0425 0.08 0.0025 0.0336065
0.0475 0.08 0.0025 0.0306857
0.0525 0.08 0.0025 0.0299318
0.0575 0.08 0.0025 0.0314965
0.0625 0.08 0.0025 0.0342488
0.0675 0.08 0.0025 0.0313583
0.0725 0.08 0.0025 0.0223776
0.0775 0.08 0.0025 0.0129604
0.0825 0.08 0.0025 0.00741603
0.0875 0.08 0.0025 0.00730732
0.0925 0.08 0.0025 0.00968156
0.0975 0.08 0.0025 0.013112
0.0025 0.08 0.0075 0.0105786
0.0075 0.08 0.0075 0.0177538
0.0125 0.08 0.0075 0.00947866
0.0175 0.08 0.0075 0.00843981
0.0225 0.08 0.0075 0.0180315
0.0275 0.08 0.0075 0.0327459
0.0325 0.08 0.0075 0.044792
0.0375 0.08 0.0075 0.046708
0.0425 0.08 0.0075 0.0444175
0.0475 0.08 0.0075 0.0409924
0.0525 0.08 0.0075 0.0393813
0.0575 0.08 0.0075 0.0404841
0.0625 0.08 0.0075 0.0424334
0.0675 0.08 0.0075 0.0372457
0.0725 0.08 0.0075 0.0246705
0.0775 0.08 0.0075 0.0121466
0.0825 0.08 0.0075 0.0072799
0.0875 0.08 0.0075 0.0117805
0.0925 0.08 0.0075 0.0221375
0.0975 0.08 0.0075 0.0139031
0.0025 0.08 0.0125 0.0104773
0.0075 0.08 0.0125 0.018001
0.0125 0.08 0.0125 0.0112613
0.0175 0.08 0.0125 0.00927511
0.0225 0.08 0.0125 0.0180777
0.0275 0.08 0.0125 0.0322723
0.0325 0.08 0.0125 0.0451848
0.0375 0.08 0.0125 0.0478258
0.0425 0.08 0.0125 0.0467673
0.0475 0.08 0.0125 0.0437625
0.0525 0.08 0.0125 0.041785
0.0575 0.08 0.0125 0.041854
0.0625 0.08 0.0125 0.0431495
0.0675 0.08 0.0125 0.0377142
0.0725 0.08 0.0125 0.0244676
0.0775 0.08 0.0125 0.0117166
0.0825 0.08 0.0125 0.00617621
0.0875 0.08 0.0125 0.00989935
0.0925 0.08 0.0125 0.0205784
0.0975 0.08 0.0125 0.0140713
0.0025 0.08 0.0175 0.0111311
0.0075 0.08 0.0175 0.00851994
0.0125 0.08 0.0175 0.00723261
0.0175 0.08 0.0175 0.00997649
0.0225 0.08 0.0175 0.017701
0.0275 0.08 0.0175 0.0281267
0.0325 0.08 0.0175 0.0375798
0.0375 0.08 0.0175 0.0381368
0.0425 0.08 0.0175 0.0366247
0.0475 0.08 0.0175 0.0345595
0.0525 0.08 0.0175 0.0334908
0.0575 0.08 0.0175 0.0337858
0.0625 0.08 0.0175 0.0348589
0.0675 0.08 0.0175 0.0318564
0.0725 0.08 0.0175 0.0220766
0.0775 0.08 0.0175 0.0122503
0.0825 0.08 0.0175 0.00612646
0.0875 0.08 0.0175 0.00609028
0.0925 0.08 0.0175 0.00893867
0.0975 0.08 0.0175 0.0123641
