# alphaMean.air  FACE_DATA 80
#  x  y  z  alphaMean.air
0.0025 0.63 0.0025 0.0421434
0.0075 0.63 0.0025 0.0398031
0.0125 0.63 0.0025 0.040606
0.0175 0.63 0.0025 0.0425267
0.0225 0.63 0.0025 0.0431172
0.0275 0.63 0.0025 0.0440475
0.0325 0.63 0.0025 0.0445509
0.0375 0.63 0.0025 0.0449351
0.0425 0.63 0.0025 0.0451406
0.0475 0.63 0.0025 0.0452666
0.0525 0.63 0.0025 0.0452385
0.0575 0.63 0.0025 0.0449546
0.0625 0.63 0.0025 0.0445383
0.0675 0.63 0.0025 0.0439836
0.0725 0.63 0.0025 0.0432893
0.0775 0.63 0.0025 0.0421388
0.0825 0.63 0.0025 0.0414034
0.0875 0.63 0.0025 0.0399441
0.0925 0.63 0.0025 0.0390072
0.0975 0.63 0.0025 0.0421341
0.0025 0.63 0.0075 0.0376742
0.0075 0.63 0.0075 0.0549443
0.0125 0.63 0.0075 0.0469178
0.0175 0.63 0.0075 0.0449513
0.0225 0.63 0.0075 0.045489
0.0275 0.63 0.0075 0.0442096
0.0325 0.63 0.0075 0.0436262
0.0375 0.63 0.0075 0.0431406
0.0425 0.63 0.0075 0.0428799
0.0475 0.63 0.0075 0.0428476
0.0525 0.63 0.0075 0.0427794
0.0575 0.63 0.0075 0.0428902
0.0625 0.63 0.0075 0.0432459
0.0675 0.63 0.0075 0.0437838
0.0725 0.63 0.0075 0.0443825
0.0775 0.63 0.0075 0.0456289
0.0825 0.63 0.0075 0.0455523
0.0875 0.63 0.0075 0.0470275
0.0925 0.63 0.0075 0.0549178
0.0975 0.63 0.0075 0.0377337
0.0025 0.63 0.0125 0.0376134
0.0075 0.63 0.0125 0.055253
0.0125 0.63 0.0125 0.0475838
0.0175 0.63 0.0125 0.0457319
0.0225 0.63 0.0125 0.0460061
0.0275 0.63 0.0125 0.0447469
0.0325 0.63 0.0125 0.0440803
0.0375 0.63 0.0125 0.0435723
0.0425 0.63 0.0125 0.0433135
0.0475 0.63 0.0125 0.043162
0.0525 0.63 0.0125 0.0430158
0.0575 0.63 0.0125 0.0431479
0.0625 0.63 0.0125 0.0435068
0.0675 0.63 0.0125 0.044011
0.0725 0.63 0.0125 0.0446384
0.0775 0.63 0.0125 0.0459425
0.0825 0.63 0.0125 0.0458374
0.0875 0.63 0.0125 0.0474104
0.0925 0.63 0.0125 0.0549929
0.0975 0.63 0.0125 0.0378531
0.0025 0.63 0.0175 0.0420066
0.0075 0.63 0.0175 0.039348
0.0125 0.63 0.0175 0.0402422
0.0175 0.63 0.0175 0.0419998
0.0225 0.63 0.0175 0.0425529
0.0275 0.63 0.0175 0.0435877
0.0325 0.63 0.0175 0.044144
0.0375 0.63 0.0175 0.0445975
0.0425 0.63 0.0175 0.0449005
0.0475 0.63 0.0175 0.0450277
0.0525 0.63 0.0175 0.0450432
0.0575 0.63 0.0175 0.0448736
0.0625 0.63 0.0175 0.0445169
0.0675 0.63 0.0175 0.0438192
0.0725 0.63 0.0175 0.0431686
0.0775 0.63 0.0175 0.0420509
0.0825 0.63 0.0175 0.0414147
0.0875 0.63 0.0175 0.0399966
0.0925 0.63 0.0175 0.0391803
0.0975 0.63 0.0175 0.042397
