# alphaMean.water  FACE_DATA 80
#  x  y  z  alphaMean.water
0.0025 0.63 0.0025 0.957857
0.0075 0.63 0.0025 0.960197
0.0125 0.63 0.0025 0.959394
0.0175 0.63 0.0025 0.957473
0.0225 0.63 0.0025 0.956883
0.0275 0.63 0.0025 0.955952
0.0325 0.63 0.0025 0.955449
0.0375 0.63 0.0025 0.955065
0.0425 0.63 0.0025 0.954859
0.0475 0.63 0.0025 0.954733
0.0525 0.63 0.0025 0.954761
0.0575 0.63 0.0025 0.955045
0.0625 0.63 0.0025 0.955462
0.0675 0.63 0.0025 0.956016
0.0725 0.63 0.0025 0.956711
0.0775 0.63 0.0025 0.957861
0.0825 0.63 0.0025 0.958597
0.0875 0.63 0.0025 0.960056
0.0925 0.63 0.0025 0.960993
0.0975 0.63 0.0025 0.957866
0.0025 0.63 0.0075 0.962326
0.0075 0.63 0.0075 0.945056
0.0125 0.63 0.0075 0.953082
0.0175 0.63 0.0075 0.955049
0.0225 0.63 0.0075 0.954511
0.0275 0.63 0.0075 0.95579
0.0325 0.63 0.0075 0.956374
0.0375 0.63 0.0075 0.956859
0.0425 0.63 0.0075 0.95712
0.0475 0.63 0.0075 0.957152
0.0525 0.63 0.0075 0.957221
0.0575 0.63 0.0075 0.95711
0.0625 0.63 0.0075 0.956754
0.0675 0.63 0.0075 0.956216
0.0725 0.63 0.0075 0.955618
0.0775 0.63 0.0075 0.954371
0.0825 0.63 0.0075 0.954448
0.0875 0.63 0.0075 0.952972
0.0925 0.63 0.0075 0.945082
0.0975 0.63 0.0075 0.962266
0.0025 0.63 0.0125 0.962387
0.0075 0.63 0.0125 0.944747
0.0125 0.63 0.0125 0.952416
0.0175 0.63 0.0125 0.954268
0.0225 0.63 0.0125 0.953994
0.0275 0.63 0.0125 0.955253
0.0325 0.63 0.0125 0.95592
0.0375 0.63 0.0125 0.956428
0.0425 0.63 0.0125 0.956687
0.0475 0.63 0.0125 0.956838
0.0525 0.63 0.0125 0.956984
0.0575 0.63 0.0125 0.956852
0.0625 0.63 0.0125 0.956493
0.0675 0.63 0.0125 0.955989
0.0725 0.63 0.0125 0.955362
0.0775 0.63 0.0125 0.954057
0.0825 0.63 0.0125 0.954163
0.0875 0.63 0.0125 0.95259
0.0925 0.63 0.0125 0.945007
0.0975 0.63 0.0125 0.962147
0.0025 0.63 0.0175 0.957993
0.0075 0.63 0.0175 0.960652
0.0125 0.63 0.0175 0.959758
0.0175 0.63 0.0175 0.958
0.0225 0.63 0.0175 0.957447
0.0275 0.63 0.0175 0.956412
0.0325 0.63 0.0175 0.955856
0.0375 0.63 0.0175 0.955402
0.0425 0.63 0.0175 0.955099
0.0475 0.63 0.0175 0.954972
0.0525 0.63 0.0175 0.954957
0.0575 0.63 0.0175 0.955126
0.0625 0.63 0.0175 0.955483
0.0675 0.63 0.0175 0.956181
0.0725 0.63 0.0175 0.956831
0.0775 0.63 0.0175 0.957949
0.0825 0.63 0.0175 0.958585
0.0875 0.63 0.0175 0.960003
0.0925 0.63 0.0175 0.96082
0.0975 0.63 0.0175 0.957603
