# UMean.water  FACE_DATA 80
#  x  y  z  UMean.water_x  UMean.water_y  UMean.water_z  
0.0025 0.63 0.0025 -0.000561206 -0.0277684 -0.000365374
0.0075 0.63 0.0025 -0.00137149 -0.0170588 -0.000369093
0.0125 0.63 0.0025 -0.00221035 -0.0112006 -0.000378144
0.0175 0.63 0.0025 -0.002837 -0.00455047 -0.000138381
0.0225 0.63 0.0025 -0.00339936 0.000873999 3.54922e-05
0.0275 0.63 0.0025 -0.00358469 0.00618337 0.000153485
0.0325 0.63 0.0025 -0.00367683 0.0101367 0.000214559
0.0375 0.63 0.0025 -0.00345096 0.0130895 0.000232119
0.0425 0.63 0.0025 -0.00320063 0.0147629 0.000258671
0.0475 0.63 0.0025 -0.00282039 0.0150329 0.000240118
0.0525 0.63 0.0025 -0.0025195 0.0138045 0.000212782
0.0575 0.63 0.0025 -0.00211544 0.0113278 0.000221345
0.0625 0.63 0.0025 -0.00174318 0.00827657 0.000230561
0.0675 0.63 0.0025 -0.00133788 0.00466222 0.000201931
0.0725 0.63 0.0025 -0.000951964 0.00058416 0.000130532
0.0775 0.63 0.0025 -0.000489928 -0.00428665 5.24457e-05
0.0825 0.63 0.0025 -9.11586e-05 -0.00894733 -6.77141e-05
0.0875 0.63 0.0025 0.000278382 -0.0143849 -0.000194056
0.0925 0.63 0.0025 0.000383868 -0.0192748 -0.000190559
0.0975 0.63 0.0025 0.000175732 -0.0276787 3.47424e-06
0.0025 0.63 0.0075 -0.000877889 -0.0260605 -0.00012846
0.0075 0.63 0.0075 -0.00139399 0.0139723 0.000119702
0.0125 0.63 0.0075 -0.00217868 0.00927777 -7.65254e-06
0.0175 0.63 0.0075 -0.00276575 0.007084 -1.14973e-05
0.0225 0.63 0.0075 -0.00332788 0.00805154 4.78351e-05
0.0275 0.63 0.0075 -0.00351122 0.00692158 8.89703e-05
0.0325 0.63 0.0075 -0.00355682 0.00591481 0.000133895
0.0375 0.63 0.0075 -0.00333796 0.00471692 0.000143273
0.0425 0.63 0.0075 -0.00311283 0.00359171 0.000159674
0.0475 0.63 0.0075 -0.00283573 0.00255203 0.000135263
0.0525 0.63 0.0075 -0.00260975 0.00153867 0.00012601
0.0575 0.63 0.0075 -0.00232607 0.0012208 0.000145137
0.0625 0.63 0.0075 -0.00204292 0.00174059 0.00016694
0.0675 0.63 0.0075 -0.00171755 0.00282571 0.000166161
0.0725 0.63 0.0075 -0.00143516 0.00428696 0.000145522
0.0775 0.63 0.0075 -0.00114463 0.00636196 9.91704e-05
0.0825 0.63 0.0075 -0.000892355 0.00680016 5.03678e-05
0.0875 0.63 0.0075 -0.000599044 0.00876243 5.58696e-05
0.0925 0.63 0.0075 -0.000250094 0.0124095 0.000168914
0.0975 0.63 0.0075 0.000266464 -0.0261612 0.000130018
0.0025 0.63 0.0125 -0.000895024 -0.0260286 -3.69624e-05
0.0075 0.63 0.0125 -0.00142338 0.0143173 -0.000224019
0.0125 0.63 0.0125 -0.00222005 0.00993642 -0.000116866
0.0175 0.63 0.0125 -0.00277138 0.00784774 -7.68775e-05
0.0225 0.63 0.0125 -0.0033153 0.00856142 -6.69803e-05
0.0275 0.63 0.0125 -0.0034955 0.00752722 -7.82182e-05
0.0325 0.63 0.0125 -0.00353084 0.00646205 -0.000103505
0.0375 0.63 0.0125 -0.00329753 0.00521878 -0.000122351
0.0425 0.63 0.0125 -0.00307806 0.00405883 -0.000146698
0.0475 0.63 0.0125 -0.0028172 0.00283248 -0.000227517
0.0525 0.63 0.0125 -0.00256868 0.00170639 -0.00028478
0.0575 0.63 0.0125 -0.00227347 0.00151121 -0.00029532
0.0625 0.63 0.0125 -0.00200405 0.00208367 -0.000269455
0.0675 0.63 0.0125 -0.00166807 0.00318075 -0.000268928
0.0725 0.63 0.0125 -0.00137395 0.00483139 -0.000246062
0.0775 0.63 0.0125 -0.00107947 0.00706882 -0.000211668
0.0825 0.63 0.0125 -0.000867534 0.00753127 -0.000130195
0.0875 0.63 0.0125 -0.00059228 0.00932212 -0.000150954
0.0925 0.63 0.0125 -0.000227139 0.0123931 -0.000214654
0.0975 0.63 0.0125 0.00029157 -0.026304 -0.000204181
0.0025 0.63 0.0175 -0.000565952 -0.0291965 0.000305431
0.0075 0.63 0.0175 -0.00142637 -0.0193329 0.00031288
0.0125 0.63 0.0175 -0.0023233 -0.0138359 0.000291014
0.0175 0.63 0.0175 -0.00295582 -0.00758765 9.08428e-05
0.0225 0.63 0.0175 -0.00351042 -0.00227761 -2.27008e-05
0.0275 0.63 0.0175 -0.00360701 0.00342056 -0.000120638
0.0325 0.63 0.0175 -0.00361491 0.00755423 -0.000188107
0.0375 0.63 0.0175 -0.00333646 0.0104177 -0.000229535
0.0425 0.63 0.0175 -0.00309348 0.0119048 -0.000263159
0.0475 0.63 0.0175 -0.00273582 0.0120392 -0.000302798
0.0525 0.63 0.0175 -0.00237101 0.0110361 -0.000322125
0.0575 0.63 0.0175 -0.00200593 0.00920742 -0.000308797
0.0625 0.63 0.0175 -0.00166041 0.00681428 -0.000264848
0.0675 0.63 0.0175 -0.00116507 0.00362922 -0.000214388
0.0725 0.63 0.0175 -0.000718293 0.00032096 -0.000127092
0.0775 0.63 0.0175 -0.000254468 -0.00418233 -3.45015e-05
0.0825 0.63 0.0175 7.55243e-05 -0.0084986 8.10194e-05
0.0875 0.63 0.0175 0.000395367 -0.0140451 0.000201316
0.0925 0.63 0.0175 0.00048087 -0.0188642 0.000165746
0.0975 0.63 0.0175 0.000229924 -0.0273739 -3.13746e-05
