# UMean.air  FACE_DATA 80
#  x  y  z  UMean.air_x  UMean.air_y  UMean.air_z  
0.0025 0.08 0.0025 0.00251833 0.0880084 0.00286856
0.0075 0.08 0.0025 0.00372331 0.121661 0.00415605
0.0125 0.08 0.0025 0.00566814 0.166072 0.00132721
0.0175 0.08 0.0025 0.00898371 0.21289 -0.00201702
0.0225 0.08 0.0025 0.0133385 0.257062 -0.00416246
0.0275 0.08 0.0025 0.0162295 0.294245 -0.00497009
0.0325 0.08 0.0025 0.0179418 0.313868 -0.00667819
0.0375 0.08 0.0025 0.0161284 0.317052 -0.00710431
0.0425 0.08 0.0025 0.0100073 0.316754 -0.00568379
0.0475 0.08 0.0025 0.00206734 0.316156 -0.00512787
0.0525 0.08 0.0025 -0.00592444 0.313532 -0.00483206
0.0575 0.08 0.0025 -0.0120352 0.308796 -0.00533374
0.0625 0.08 0.0025 -0.0158302 0.305408 -0.00597176
0.0675 0.08 0.0025 -0.0152168 0.295917 -0.00461299
0.0725 0.08 0.0025 -0.0128593 0.269358 -0.00318264
0.0775 0.08 0.0025 -0.0102104 0.228905 -0.00179101
0.0825 0.08 0.0025 -0.00745971 0.182679 0.000528374
0.0875 0.08 0.0025 -0.00558414 0.133322 0.00252636
0.0925 0.08 0.0025 -0.00498125 0.0894975 0.00383369
0.0975 0.08 0.0025 -0.00453222 0.0548146 0.00238908
0.0025 0.08 0.0075 0.00726112 0.0981379 0.00500824
0.0075 0.08 0.0075 0.0105834 0.131665 0.00571415
0.0125 0.08 0.0075 0.00844294 0.166669 0.00317564
0.0175 0.08 0.0075 0.00873624 0.213805 -0.000261655
0.0225 0.08 0.0075 0.0104247 0.26465 -0.00238845
0.0275 0.08 0.0075 0.0135613 0.308043 -0.00309934
0.0325 0.08 0.0075 0.0160003 0.335235 -0.00483686
0.0375 0.08 0.0075 0.0154348 0.343809 -0.00506847
0.0425 0.08 0.0075 0.0098254 0.342834 -0.00395537
0.0475 0.08 0.0075 0.00164978 0.339663 -0.0037852
0.0525 0.08 0.0075 -0.00695508 0.335206 -0.00332968
0.0575 0.08 0.0075 -0.0138044 0.330877 -0.0037056
0.0625 0.08 0.0075 -0.0170935 0.327438 -0.00440588
0.0675 0.08 0.0075 -0.0156096 0.313557 -0.00288562
0.0725 0.08 0.0075 -0.0125026 0.282958 -0.00130066
0.0775 0.08 0.0075 -0.00957892 0.237609 0.000363165
0.0825 0.08 0.0075 -0.00863406 0.187135 0.00273804
0.0875 0.08 0.0075 -0.0077711 0.142682 0.00463913
0.0925 0.08 0.0075 -0.0102109 0.107548 0.00629062
0.0975 0.08 0.0075 -0.00775519 0.0705577 0.00394105
0.0025 0.08 0.0125 0.00793042 0.0977138 -0.00250112
0.0075 0.08 0.0125 0.0111678 0.128651 -0.00598507
0.0125 0.08 0.0125 0.00874869 0.163393 -0.00574072
0.0175 0.08 0.0125 0.00900609 0.21124 -0.00404411
0.0225 0.08 0.0125 0.0104648 0.263418 -0.00107134
0.0275 0.08 0.0125 0.0136636 0.30784 0.00211481
0.0325 0.08 0.0125 0.0171143 0.337414 0.00467841
0.0375 0.08 0.0125 0.0163196 0.347984 0.004843
0.0425 0.08 0.0125 0.0100038 0.347314 0.00277822
0.0475 0.08 0.0125 0.00177187 0.344494 0.00145444
0.0525 0.08 0.0125 -0.00712063 0.33938 0.00198744
0.0575 0.08 0.0125 -0.0146496 0.33417 0.0030405
0.0625 0.08 0.0125 -0.0178763 0.329913 0.00347641
0.0675 0.08 0.0125 -0.0163566 0.315585 0.00238202
0.0725 0.08 0.0125 -0.0130206 0.284232 0.000758154
0.0775 0.08 0.0125 -0.00926904 0.238923 -0.000811502
0.0825 0.08 0.0125 -0.00797394 0.188655 -0.00333204
0.0875 0.08 0.0125 -0.00710435 0.144772 -0.00562793
0.0925 0.08 0.0125 -0.0100472 0.107617 -0.00598754
0.0975 0.08 0.0125 -0.00807415 0.07058 -0.00320039
0.0025 0.08 0.0175 0.00531094 0.081109 -0.00189463
0.0075 0.08 0.0175 0.00651234 0.11057 -0.00398573
0.0125 0.08 0.0175 0.00748584 0.153787 -0.00263057
0.0175 0.08 0.0175 0.0101915 0.205188 -0.000194008
0.0225 0.08 0.0175 0.013621 0.254291 0.00277047
0.0275 0.08 0.0175 0.0164839 0.293941 0.0052478
0.0325 0.08 0.0175 0.0191142 0.316969 0.00724505
0.0375 0.08 0.0175 0.0172254 0.324689 0.00683508
0.0425 0.08 0.0175 0.010379 0.32679 0.00460965
0.0475 0.08 0.0175 0.0024059 0.32745 0.00333174
0.0525 0.08 0.0175 -0.00602152 0.323954 0.00343916
0.0575 0.08 0.0175 -0.0137575 0.317141 0.00450034
0.0625 0.08 0.0175 -0.0175105 0.310717 0.00524367
0.0675 0.08 0.0175 -0.0171912 0.298105 0.00424936
0.0725 0.08 0.0175 -0.0151113 0.270509 0.00320698
0.0775 0.08 0.0175 -0.011458 0.228769 0.00186773
0.0825 0.08 0.0175 -0.00794849 0.181754 -0.000905835
0.0875 0.08 0.0175 -0.00586602 0.133417 -0.00355273
0.0925 0.08 0.0175 -0.00504626 0.084329 -0.00461121
0.0975 0.08 0.0175 -0.0048718 0.0513791 -0.00207008
