# UMean.water  FACE_DATA 80
#  x  y  z  UMean.water_x  UMean.water_y  UMean.water_z  
0.0025 0.08 0.0025 0.00370703 -0.14605 0.00195455
0.0075 0.08 0.0025 0.00810432 -0.112772 0.00130881
0.0125 0.08 0.0025 0.0124904 -0.067559 -0.000624468
0.0175 0.08 0.0025 0.0149753 -0.0199563 -0.00246206
0.0225 0.08 0.0025 0.0168541 0.0247532 -0.00324704
0.0275 0.08 0.0025 0.0166964 0.0623977 -0.00285908
0.0325 0.08 0.0025 0.0151293 0.0824867 -0.0023381
0.0375 0.08 0.0025 0.0115906 0.0865748 -0.00177365
0.0425 0.08 0.0025 0.0063259 0.0870562 -0.00117216
0.0475 0.08 0.0025 0.000776545 0.0865437 -0.00101547
0.0525 0.08 0.0025 -0.00503883 0.0838219 -0.000652071
0.0575 0.08 0.0025 -0.00935269 0.078787 -0.0008483
0.0625 0.08 0.0025 -0.0128819 0.0740012 -0.00132253
0.0675 0.08 0.0025 -0.0142805 0.0639305 -0.00160284
0.0725 0.08 0.0025 -0.0150481 0.0364801 -0.00180582
0.0775 0.08 0.0025 -0.015441 -0.00432901 -0.00137731
0.0825 0.08 0.0025 -0.0150435 -0.0515565 -3.33904e-05
0.0875 0.08 0.0025 -0.0133124 -0.101221 0.000500771
0.0925 0.08 0.0025 -0.00929724 -0.145346 0.00102178
0.0975 0.08 0.0025 -0.00505985 -0.180197 0.00113961
0.0025 0.08 0.0075 0.00560615 -0.135562 0.00422146
0.0075 0.08 0.0075 0.0126514 -0.101887 0.00274938
0.0125 0.08 0.0075 0.0171231 -0.0670273 0.000966002
0.0175 0.08 0.0075 0.0190848 -0.0196781 -0.000704683
0.0225 0.08 0.0075 0.0186183 0.0313919 -0.00126437
0.0275 0.08 0.0075 0.0174997 0.0754374 -0.000752397
0.0325 0.08 0.0075 0.0154248 0.103306 -0.000266553
0.0375 0.08 0.0075 0.0117887 0.112539 0.000484582
0.0425 0.08 0.0075 0.00616573 0.113454 0.000949838
0.0475 0.08 0.0075 -0.000152977 0.11056 0.000833977
0.0525 0.08 0.0075 -0.00652064 0.105911 0.00125388
0.0575 0.08 0.0075 -0.0115706 0.100948 0.0010954
0.0625 0.08 0.0075 -0.0151038 0.0950956 0.000418312
0.0675 0.08 0.0075 -0.0168687 0.0808151 0.000194804
0.0725 0.08 0.0075 -0.0181747 0.0493471 0.000275234
0.0775 0.08 0.0075 -0.0191724 0.00373159 0.000910927
0.0825 0.08 0.0075 -0.0195955 -0.0470784 0.00220977
0.0875 0.08 0.0075 -0.0171658 -0.0913679 0.00267891
0.0925 0.08 0.0075 -0.0124601 -0.126335 0.00340424
0.0975 0.08 0.0075 -0.00571287 -0.163754 0.00276523
0.0025 0.08 0.0125 0.00634124 -0.136147 -0.00147709
0.0075 0.08 0.0125 0.013391 -0.10484 -0.00378586
0.0125 0.08 0.0125 0.0176895 -0.0704284 -0.0042935
0.0175 0.08 0.0125 0.0196513 -0.022486 -0.00406448
0.0225 0.08 0.0125 0.0190347 0.0298569 -0.0019029
0.0275 0.08 0.0125 0.0178413 0.075114 -4.14139e-05
0.0325 0.08 0.0125 0.0165194 0.10545 0.000855271
0.0375 0.08 0.0125 0.0128348 0.11677 0.000410312
0.0425 0.08 0.0125 0.00657388 0.118289 -0.000927029
0.0475 0.08 0.0125 -1.22743e-05 0.115692 -0.00181685
0.0525 0.08 0.0125 -0.00674673 0.110439 -0.0013411
0.0575 0.08 0.0125 -0.0124913 0.104471 -0.000572292
0.0625 0.08 0.0125 -0.0159855 0.0978369 -0.000259201
0.0675 0.08 0.0125 -0.0175524 0.0827072 -0.000177238
0.0725 0.08 0.0125 -0.0184713 0.0508049 -0.00071828
0.0775 0.08 0.0125 -0.0188583 0.00497959 -0.00114788
0.0825 0.08 0.0125 -0.0190826 -0.0451094 -0.00213252
0.0875 0.08 0.0125 -0.0168392 -0.0892202 -0.00294342
0.0925 0.08 0.0125 -0.0125098 -0.126378 -0.00278593
0.0975 0.08 0.0125 -0.00596895 -0.163751 -0.00210832
0.0025 0.08 0.0175 0.00617721 -0.153388 -0.000764336
0.0075 0.08 0.0175 0.0108314 -0.123572 -0.00153989
0.0125 0.08 0.0175 0.0148356 -0.0807774 -0.00106149
0.0175 0.08 0.0175 0.0173382 -0.0287663 -0.000361133
0.0225 0.08 0.0175 0.018052 0.0216531 0.00157829
0.0275 0.08 0.0175 0.0173406 0.0621613 0.00280605
0.0325 0.08 0.0175 0.0167681 0.0861714 0.00322868
0.0375 0.08 0.0175 0.0133827 0.0942112 0.00229452
0.0425 0.08 0.0175 0.00746538 0.0974774 0.000703529
0.0475 0.08 0.0175 0.00134727 0.0981946 -0.000370103
0.0525 0.08 0.0175 -0.00521763 0.0946527 -0.000337616
0.0575 0.08 0.0175 -0.0113978 0.0875187 0.000506314
0.0625 0.08 0.0175 -0.0152967 0.0790504 0.00121228
0.0675 0.08 0.0175 -0.0169669 0.0659307 0.00148331
0.0725 0.08 0.0175 -0.0174965 0.0373537 0.0014961
0.0775 0.08 0.0175 -0.0166511 -0.00460854 0.00127069
0.0825 0.08 0.0175 -0.0157547 -0.0516715 5.41493e-05
0.0875 0.08 0.0175 -0.0142044 -0.100477 -0.00102776
0.0925 0.08 0.0175 -0.00966915 -0.150041 -0.000906411
0.0975 0.08 0.0175 -0.00545778 -0.183352 -0.000659662
