# UMean.air  FACE_DATA 80
#  x  y  z  UMean.air_x  UMean.air_y  UMean.air_z  
0.0025 0.63 0.0025 -0.00118661 0.195933 -0.00043016
0.0075 0.63 0.0025 -0.00296171 0.206679 -4.56995e-05
0.0125 0.63 0.0025 -0.00393919 0.212586 -0.000398042
0.0175 0.63 0.0025 -0.0043925 0.219269 -0.000232832
0.0225 0.63 0.0025 -0.00489321 0.22476 0.000168712
0.0275 0.63 0.0025 -0.0049581 0.23012 0.000208596
0.0325 0.63 0.0025 -0.00479079 0.234128 0.00020221
0.0375 0.63 0.0025 -0.00418007 0.237112 0.000178864
0.0425 0.63 0.0025 -0.0035138 0.238807 0.000291806
0.0475 0.63 0.0025 -0.00270616 0.239069 0.000332528
0.0525 0.63 0.0025 -0.00205069 0.237843 0.000344832
0.0575 0.63 0.0025 -0.00137507 0.235399 0.000356184
0.0625 0.63 0.0025 -0.000781531 0.232378 0.000403955
0.0675 0.63 0.0025 -0.000208541 0.228783 0.000441765
0.0725 0.63 0.0025 0.000259515 0.22472 0.000411013
0.0775 0.63 0.0025 0.000757841 0.219874 0.00037961
0.0825 0.63 0.0025 0.00120483 0.215211 3.34321e-05
0.0875 0.63 0.0025 0.00174928 0.20973 -8.54553e-05
0.0925 0.63 0.0025 0.00159474 0.20478 0.00010096
0.0975 0.63 0.0025 0.000575566 0.19631 6.27633e-05
0.0025 0.63 0.0075 -0.00082929 0.197759 -0.000183272
0.0075 0.63 0.0075 -0.00131822 0.237319 0.000503067
0.0125 0.63 0.0075 -0.00197656 0.232974 -1.75048e-06
0.0175 0.63 0.0075 -0.00251143 0.230864 -9.44963e-05
0.0225 0.63 0.0075 -0.00317395 0.23185 0.000188819
0.0275 0.63 0.0075 -0.00323006 0.230814 0.000161754
0.0325 0.63 0.0075 -0.0032173 0.229871 0.000128893
0.0375 0.63 0.0075 -0.00297737 0.228718 7.54825e-05
0.0425 0.63 0.0075 -0.00276423 0.227605 0.000213738
0.0475 0.63 0.0075 -0.00256305 0.22656 0.000248282
0.0525 0.63 0.0075 -0.00249383 0.225551 0.000273054
0.0575 0.63 0.0075 -0.0024015 0.225238 0.000277411
0.0625 0.63 0.0075 -0.00229255 0.225758 0.000327176
0.0675 0.63 0.0075 -0.00207445 0.226831 0.000369436
0.0725 0.63 0.0075 -0.00179565 0.228274 0.00037964
0.0775 0.63 0.0075 -0.00144675 0.230308 0.000351139
0.0825 0.63 0.0075 -0.00122039 0.230775 9.26616e-05
0.0875 0.63 0.0075 -0.000794537 0.232687 0.000143264
0.0925 0.63 0.0075 -0.000433254 0.236063 0.000534506
0.0975 0.63 0.0075 0.000133902 0.197939 0.000154344
0.0025 0.63 0.0125 -0.000821388 0.197798 7.87246e-05
0.0075 0.63 0.0125 -0.00130346 0.237668 -0.000585082
0.0125 0.63 0.0125 -0.00201228 0.233622 -0.000126275
0.0175 0.63 0.0125 -0.00251402 0.231615 3.27647e-05
0.0225 0.63 0.0125 -0.00315066 0.232348 -0.000239079
0.0275 0.63 0.0125 -0.00322888 0.231405 -0.000146484
0.0325 0.63 0.0125 -0.00319905 0.230406 -0.000137741
0.0375 0.63 0.0125 -0.00294562 0.229207 -0.000213271
0.0425 0.63 0.0125 -0.00274619 0.228057 -0.00025219
0.0475 0.63 0.0125 -0.00254885 0.226841 -0.000338718
0.0525 0.63 0.0125 -0.00243697 0.225724 -0.000325415
0.0575 0.63 0.0125 -0.00234375 0.225526 -0.000364525
0.0625 0.63 0.0125 -0.00226639 0.226098 -0.000408184
0.0675 0.63 0.0125 -0.00204778 0.227191 -0.000517776
0.0725 0.63 0.0125 -0.00175176 0.228823 -0.000621243
0.0775 0.63 0.0125 -0.00137574 0.231017 -0.0007378
0.0825 0.63 0.0125 -0.00117853 0.231503 -0.000398883
0.0875 0.63 0.0125 -0.000730413 0.233246 -0.000468278
0.0925 0.63 0.0125 -0.000281 0.236052 -0.00054246
0.0975 0.63 0.0125 0.000233703 0.197792 -0.000296953
0.0025 0.63 0.0175 -0.00111107 0.194532 0.000396966
0.0075 0.63 0.0175 -0.00287646 0.204442 1.36684e-05
0.0125 0.63 0.0175 -0.00393107 0.20998 0.000316137
0.0175 0.63 0.0175 -0.0044332 0.216267 0.00018874
0.0225 0.63 0.0175 -0.00500932 0.22164 -0.000173432
0.0275 0.63 0.0175 -0.0050029 0.227386 -0.000183161
0.0325 0.63 0.0175 -0.00471624 0.231567 -0.000215299
0.0375 0.63 0.0175 -0.00404352 0.234459 -0.000298277
0.0425 0.63 0.0175 -0.00345588 0.235964 -0.000393177
0.0475 0.63 0.0175 -0.00278822 0.236135 -0.000442142
0.0525 0.63 0.0175 -0.00210835 0.235143 -0.000379225
0.0575 0.63 0.0175 -0.00143689 0.233314 -0.000373057
0.0625 0.63 0.0175 -0.000835313 0.230943 -0.000388015
0.0675 0.63 0.0175 -0.000124505 0.227791 -0.00042144
0.0725 0.63 0.0175 0.000461861 0.22448 -0.000448438
0.0775 0.63 0.0175 0.00097487 0.219986 -0.000474386
0.0825 0.63 0.0175 0.00134598 0.215651 -0.000129263
0.0875 0.63 0.0175 0.00183715 0.21007 -3.5782e-06
0.0925 0.63 0.0175 0.00167335 0.205195 -0.000114817
0.0975 0.63 0.0175 0.000619889 0.196596 -9.14437e-05
