# alphaMean.air  FACE_DATA 320
#  x  y  z  alphaMean.air
0.00125 0.08 0.00125 0.00497774
0.00375 0.08 0.00125 0.00727883
0.00625 0.08 0.00125 0.00738027
0.00875 0.08 0.00125 0.00652477
0.01125 0.08 0.00125 0.00608543
0.01375 0.08 0.00125 0.0062758
0.01625 0.08 0.00125 0.0079078
0.01875 0.08 0.00125 0.0133731
0.02125 0.08 0.00125 0.022058
0.02375 0.08 0.00125 0.0314033
0.02625 0.08 0.00125 0.0399794
0.02875 0.08 0.00125 0.0468127
0.03125 0.08 0.00125 0.0493875
0.03375 0.08 0.00125 0.0490249
0.03625 0.08 0.00125 0.0479767
0.03875 0.08 0.00125 0.0455662
0.04125 0.08 0.00125 0.042383
0.04375 0.08 0.00125 0.0393317
0.04625 0.08 0.00125 0.0375734
0.04875 0.08 0.00125 0.0369965
0.05125 0.08 0.00125 0.0375258
0.05375 0.08 0.00125 0.0394173
0.05625 0.08 0.00125 0.044051
0.05875 0.08 0.00125 0.0492134
0.06125 0.08 0.00125 0.0519854
0.06375 0.08 0.00125 0.0495894
0.06625 0.08 0.00125 0.0443494
0.06875 0.08 0.00125 0.0379142
0.07125 0.08 0.00125 0.030156
0.07375 0.08 0.00125 0.0215782
0.07625 0.08 0.00125 0.0138365
0.07875 0.08 0.00125 0.00894283
0.08125 0.08 0.00125 0.00633356
0.08375 0.08 0.00125 0.00486943
0.08625 0.08 0.00125 0.00429536
0.08875 0.08 0.00125 0.00451928
0.09125 0.08 0.00125 0.00509224
0.09375 0.08 0.00125 0.00570825
0.09625 0.08 0.00125 0.00579665
0.09875 0.08 0.00125 0.0037158
0.00125 0.08 0.00375 0.0104462
0.00375 0.08 0.00375 0.0299169
0.00625 0.08 0.00375 0.0228354
0.00875 0.08 0.00375 0.0171774
0.01125 0.08 0.00375 0.0142725
0.01375 0.08 0.00375 0.0125752
0.01625 0.08 0.00375 0.0116977
0.01875 0.08 0.00375 0.0132527
0.02125 0.08 0.00375 0.0177228
0.02375 0.08 0.00375 0.0236764
0.02625 0.08 0.00375 0.0298849
0.02875 0.08 0.00375 0.0344352
0.03125 0.08 0.00375 0.0362482
0.03375 0.08 0.00375 0.035718
0.03625 0.08 0.00375 0.034496
0.03875 0.08 0.00375 0.0333564
0.04125 0.08 0.00375 0.0322123
0.04375 0.08 0.00375 0.031128
0.04625 0.08 0.00375 0.0305711
0.04875 0.08 0.00375 0.0305616
0.05125 0.08 0.00375 0.030982
0.05375 0.08 0.00375 0.0317352
0.05625 0.08 0.00375 0.0332956
0.05875 0.08 0.00375 0.0344908
0.06125 0.08 0.00375 0.034783
0.06375 0.08 0.00375 0.0332156
0.06625 0.08 0.00375 0.0305777
0.06875 0.08 0.00375 0.0269965
0.07125 0.08 0.00375 0.0220375
0.07375 0.08 0.00375 0.0165188
0.07625 0.08 0.00375 0.0115152
0.07875 0.08 0.00375 0.00811752
0.08125 0.08 0.00375 0.00679555
0.08375 0.08 0.00375 0.00709994
0.08625 0.08 0.00375 0.00897257
0.08875 0.08 0.00375 0.0123079
0.09125 0.08 0.00375 0.0165063
0.09375 0.08 0.00375 0.02157
0.09625 0.08 0.00375 0.0267328
0.09875 0.08 0.00375 0.0101436
0.00125 0.08 0.00625 0.0113214
0.00375 0.08 0.00625 0.0242988
0.00625 0.08 0.00625 0.0161765
0.00875 0.08 0.00625 0.0116474
0.01125 0.08 0.00625 0.0100424
0.01375 0.08 0.00625 0.00890586
0.01625 0.08 0.00625 0.00823974
0.01875 0.08 0.00625 0.00971139
0.02125 0.08 0.00625 0.0141279
0.02375 0.08 0.00625 0.0207877
0.02625 0.08 0.00625 0.0282435
0.02875 0.08 0.00625 0.0343873
0.03125 0.08 0.00625 0.037627
0.03375 0.08 0.00625 0.0386802
0.03625 0.08 0.00625 0.0382204
0.03875 0.08 0.00625 0.0374604
0.04125 0.08 0.00625 0.036349
0.04375 0.08 0.00625 0.0351792
0.04625 0.08 0.00625 0.0345672
0.04875 0.08 0.00625 0.0344806
0.05125 0.08 0.00625 0.034511
0.05375 0.08 0.00625 0.0349364
0.05625 0.08 0.00625 0.0366629
0.05875 0.08 0.00625 0.0382014
0.06125 0.08 0.00625 0.0382318
0.06375 0.08 0.00625 0.0365921
0.06625 0.08 0.00625 0.0333165
0.06875 0.08 0.00625 0.0286436
0.07125 0.08 0.00625 0.022571
0.07375 0.08 0.00625 0.0161171
0.07625 0.08 0.00625 0.0103913
0.07875 0.08 0.00625 0.00663393
0.08125 0.08 0.00625 0.00506319
0.08375 0.08 0.00625 0.00522126
0.08625 0.08 0.00625 0.00680145
0.08875 0.08 0.00625 0.00959667
0.09125 0.08 0.00625 0.0134379
0.09375 0.08 0.00625 0.0193812
0.09625 0.08 0.00625 0.026478
0.09875 0.08 0.00625 0.0119616
0.00125 0.08 0.00875 0.011187
0.00375 0.08 0.00875 0.0180755
0.00625 0.08 0.00875 0.0117271
0.00875 0.08 0.00875 0.00859711
0.01125 0.08 0.00875 0.00715205
0.01375 0.08 0.00875 0.00612756
0.01625 0.08 0.00875 0.0058731
0.01875 0.08 0.00875 0.00818316
0.02125 0.08 0.00875 0.0138348
0.02375 0.08 0.00875 0.0216983
0.02625 0.08 0.00875 0.0303248
0.02875 0.08 0.00875 0.0378951
0.03125 0.08 0.00875 0.0422112
0.03375 0.08 0.00875 0.0444898
0.03625 0.08 0.00875 0.0449451
0.03875 0.08 0.00875 0.0444353
0.04125 0.08 0.00875 0.0428599
0.04375 0.08 0.00875 0.0410161
0.04625 0.08 0.00875 0.0399258
0.04875 0.08 0.00875 0.0396957
0.05125 0.08 0.00875 0.039565
0.05375 0.08 0.00875 0.0400296
0.05625 0.08 0.00875 0.0421606
0.05875 0.08 0.00875 0.0445333
0.06125 0.08 0.00875 0.045067
0.06375 0.08 0.00875 0.0434883
0.06625 0.08 0.00875 0.0389315
0.06875 0.08 0.00875 0.0328201
0.07125 0.08 0.00875 0.0256644
0.07375 0.08 0.00875 0.0180905
0.07625 0.08 0.00875 0.0113796
0.07875 0.08 0.00875 0.00690297
0.08125 0.08 0.00875 0.00505837
0.08375 0.08 0.00875 0.00499246
0.08625 0.08 0.00875 0.00625444
0.08875 0.08 0.00875 0.00857261
0.09125 0.08 0.00875 0.0113539
0.09375 0.08 0.00875 0.0163003
0.09625 0.08 0.00875 0.0237173
0.09875 0.08 0.00875 0.0122125
0.00125 0.08 0.01125 0.0112708
0.00375 0.08 0.01125 0.0171933
0.00625 0.08 0.01125 0.0112648
0.00875 0.08 0.01125 0.00815483
0.01125 0.08 0.01125 0.00683765
0.01375 0.08 0.01125 0.00605429
0.01625 0.08 0.01125 0.0062073
0.01875 0.08 0.01125 0.00875955
0.02125 0.08 0.01125 0.0143376
0.02375 0.08 0.01125 0.0216642
0.02625 0.08 0.01125 0.0296553
0.02875 0.08 0.01125 0.0370341
0.03125 0.08 0.01125 0.0417442
0.03375 0.08 0.01125 0.0443853
0.03625 0.08 0.01125 0.0452133
0.03875 0.08 0.01125 0.0446966
0.04125 0.08 0.01125 0.0433046
0.04375 0.08 0.01125 0.0416479
0.04625 0.08 0.01125 0.0409106
0.04875 0.08 0.01125 0.0408343
0.05125 0.08 0.01125 0.0408148
0.05375 0.08 0.01125 0.0412292
0.05625 0.08 0.01125 0.042883
0.05875 0.08 0.01125 0.0451957
0.06125 0.08 0.01125 0.0457702
0.06375 0.08 0.01125 0.0442524
0.06625 0.08 0.01125 0.0401425
0.06875 0.08 0.01125 0.0342267
0.07125 0.08 0.01125 0.0274178
0.07375 0.08 0.01125 0.0200165
0.07625 0.08 0.01125 0.012757
0.07875 0.08 0.01125 0.00786093
0.08125 0.08 0.01125 0.00604652
0.08375 0.08 0.01125 0.00619135
0.08625 0.08 0.01125 0.00762421
0.08875 0.08 0.01125 0.0100368
0.09125 0.08 0.01125 0.0128658
0.09375 0.08 0.01125 0.017156
0.09625 0.08 0.01125 0.0235509
0.09875 0.08 0.01125 0.01241
0.00125 0.08 0.01375 0.0118011
0.00375 0.08 0.01375 0.0222761
0.00625 0.08 0.01375 0.0161099
0.00875 0.08 0.01375 0.0119025
0.01125 0.08 0.01375 0.0100238
0.01375 0.08 0.01375 0.00879861
0.01625 0.08 0.01375 0.00871106
0.01875 0.08 0.01375 0.0104452
0.02125 0.08 0.01375 0.0142332
0.02375 0.08 0.01375 0.0194899
0.02625 0.08 0.01375 0.025565
0.02875 0.08 0.01375 0.0316364
0.03125 0.08 0.01375 0.0353899
0.03375 0.08 0.01375 0.0375551
0.03625 0.08 0.01375 0.0380989
0.03875 0.08 0.01375 0.0375895
0.04125 0.08 0.01375 0.0367541
0.04375 0.08 0.01375 0.0358193
0.04625 0.08 0.01375 0.0357154
0.04875 0.08 0.01375 0.0361154
0.05125 0.08 0.01375 0.0364323
0.05375 0.08 0.01375 0.0367236
0.05625 0.08 0.01375 0.037337
0.05875 0.08 0.01375 0.0392435
0.06125 0.08 0.01375 0.0398753
0.06375 0.08 0.01375 0.0388781
0.06625 0.08 0.01375 0.0360273
0.06875 0.08 0.01375 0.0314751
0.07125 0.08 0.01375 0.0262459
0.07375 0.08 0.01375 0.0203712
0.07625 0.08 0.01375 0.0142994
0.07875 0.08 0.01375 0.010313
0.08125 0.08 0.01375 0.00888466
0.08375 0.08 0.01375 0.00939713
0.08625 0.08 0.01375 0.0110135
0.08875 0.08 0.01375 0.0134738
0.09125 0.08 0.01375 0.0164583
0.09375 0.08 0.01375 0.0211021
0.09625 0.08 0.01375 0.0262902
0.09875 0.08 0.01375 0.012995
0.00125 0.08 0.01625 0.0108873
0.00375 0.08 0.01625 0.029496
0.00625 0.08 0.01625 0.0264512
0.00875 0.08 0.01625 0.0203652
0.01125 0.08 0.01625 0.0164557
0.01375 0.08 0.01625 0.0135888
0.01625 0.08 0.01625 0.0125677
0.01875 0.08 0.01625 0.0130822
0.02125 0.08 0.01625 0.0154585
0.02375 0.08 0.01625 0.0196467
0.02625 0.08 0.01625 0.0248134
0.02875 0.08 0.01625 0.0298642
0.03125 0.08 0.01625 0.0327836
0.03375 0.08 0.01625 0.0343462
0.03625 0.08 0.01625 0.0345353
0.03875 0.08 0.01625 0.0338647
0.04125 0.08 0.01625 0.0331161
0.04375 0.08 0.01625 0.0325929
0.04625 0.08 0.01625 0.0328264
0.04875 0.08 0.01625 0.0331135
0.05125 0.08 0.01625 0.0332554
0.05375 0.08 0.01625 0.032813
0.05625 0.08 0.01625 0.0331115
0.05875 0.08 0.01625 0.0348762
0.06125 0.08 0.01625 0.0364644
0.06375 0.08 0.01625 0.036456
0.06625 0.08 0.01625 0.0350553
0.06875 0.08 0.01625 0.0321587
0.07125 0.08 0.01625 0.0281517
0.07375 0.08 0.01625 0.0230319
0.07625 0.08 0.01625 0.0178073
0.07875 0.08 0.01625 0.0144624
0.08125 0.08 0.01625 0.0131694
0.08375 0.08 0.01625 0.0138492
0.08625 0.08 0.01625 0.0155104
0.08875 0.08 0.01625 0.017815
0.09125 0.08 0.01625 0.0208233
0.09375 0.08 0.01625 0.0251983
0.09625 0.08 0.01625 0.0273908
0.09875 0.08 0.01625 0.0111603
0.00125 0.08 0.01875 0.00519531
0.00375 0.08 0.01875 0.0076562
0.00625 0.08 0.01875 0.00864982
0.00875 0.08 0.01875 0.00826573
0.01125 0.08 0.01875 0.00740722
0.01375 0.08 0.01875 0.00769185
0.01625 0.08 0.01875 0.00933602
0.01875 0.08 0.01875 0.0126482
0.02125 0.08 0.01875 0.0178098
0.02375 0.08 0.01875 0.0251424
0.02625 0.08 0.01875 0.0339208
0.02875 0.08 0.01875 0.0417006
0.03125 0.08 0.01875 0.0467649
0.03375 0.08 0.01875 0.0494968
0.03625 0.08 0.01875 0.0496168
0.03875 0.08 0.01875 0.04852
0.04125 0.08 0.01875 0.0471149
0.04375 0.08 0.01875 0.0468469
0.04625 0.08 0.01875 0.046861
0.04875 0.08 0.01875 0.0464903
0.05125 0.08 0.01875 0.0455617
0.05375 0.08 0.01875 0.0445388
0.05625 0.08 0.01875 0.0460312
0.05875 0.08 0.01875 0.0490275
0.06125 0.08 0.01875 0.0505261
0.06375 0.08 0.01875 0.0494884
0.06625 0.08 0.01875 0.0460621
0.06875 0.08 0.01875 0.0407476
0.07125 0.08 0.01875 0.0338152
0.07375 0.08 0.01875 0.02613
0.07625 0.08 0.01875 0.0186937
0.07875 0.08 0.01875 0.0127553
0.08125 0.08 0.01875 0.00860012
0.08375 0.08 0.01875 0.00686196
0.08625 0.08 0.01875 0.00673634
0.08875 0.08 0.01875 0.00725445
0.09125 0.08 0.01875 0.00806063
0.09375 0.08 0.01875 0.0087366
0.09625 0.08 0.01875 0.00766283
0.09875 0.08 0.01875 0.00476469
