# alphaMean.air  FACE_DATA 320
#  x  y  z  alphaMean.air
0.00125 0.63 0.00125 0.0381815
0.00375 0.63 0.00125 0.030015
0.00625 0.63 0.00125 0.0321893
0.00875 0.63 0.00125 0.0357433
0.01125 0.63 0.00125 0.0363326
0.01375 0.63 0.00125 0.0378499
0.01625 0.63 0.00125 0.0392646
0.01875 0.63 0.00125 0.0405574
0.02125 0.63 0.00125 0.0418186
0.02375 0.63 0.00125 0.0430436
0.02625 0.63 0.00125 0.0442275
0.02875 0.63 0.00125 0.0453145
0.03125 0.63 0.00125 0.0462604
0.03375 0.63 0.00125 0.0470901
0.03625 0.63 0.00125 0.0478106
0.03875 0.63 0.00125 0.0484717
0.04125 0.63 0.00125 0.0490752
0.04375 0.63 0.00125 0.049604
0.04625 0.63 0.00125 0.0500169
0.04875 0.63 0.00125 0.0502731
0.05125 0.63 0.00125 0.0503691
0.05375 0.63 0.00125 0.0503085
0.05625 0.63 0.00125 0.0501007
0.05875 0.63 0.00125 0.0497184
0.06125 0.63 0.00125 0.0492064
0.06375 0.63 0.00125 0.0485874
0.06625 0.63 0.00125 0.0478691
0.06875 0.63 0.00125 0.0470469
0.07125 0.63 0.00125 0.0462316
0.07375 0.63 0.00125 0.0454448
0.07625 0.63 0.00125 0.0445716
0.07875 0.63 0.00125 0.0435344
0.08125 0.63 0.00125 0.0424888
0.08375 0.63 0.00125 0.0414911
0.08625 0.63 0.00125 0.0404627
0.08875 0.63 0.00125 0.0391766
0.09125 0.63 0.00125 0.0380915
0.09375 0.63 0.00125 0.0350895
0.09625 0.63 0.00125 0.0332897
0.09875 0.63 0.00125 0.0393615
0.00125 0.63 0.00375 0.0304117
0.00375 0.63 0.00375 0.0704591
0.00625 0.63 0.00375 0.0569441
0.00875 0.63 0.00375 0.0510956
0.01125 0.63 0.00375 0.0519384
0.01375 0.63 0.00375 0.0501425
0.01625 0.63 0.00375 0.0487459
0.01875 0.63 0.00375 0.047358
0.02125 0.63 0.00375 0.0459123
0.02375 0.63 0.00375 0.0444802
0.02625 0.63 0.00375 0.0431167
0.02875 0.63 0.00375 0.0418726
0.03125 0.63 0.00375 0.0408066
0.03375 0.63 0.00375 0.0399282
0.03625 0.63 0.00375 0.0392346
0.03875 0.63 0.00375 0.0387405
0.04125 0.63 0.00375 0.0384566
0.04375 0.63 0.00375 0.0383139
0.04625 0.63 0.00375 0.0382666
0.04875 0.63 0.00375 0.0382685
0.05125 0.63 0.00375 0.0382803
0.05375 0.63 0.00375 0.0382877
0.05625 0.63 0.00375 0.0382821
0.05875 0.63 0.00375 0.038258
0.06125 0.63 0.00375 0.038271
0.06375 0.63 0.00375 0.0384317
0.06625 0.63 0.00375 0.0388422
0.06875 0.63 0.00375 0.039536
0.07125 0.63 0.00375 0.0404762
0.07375 0.63 0.00375 0.0415749
0.07625 0.63 0.00375 0.0427799
0.07875 0.63 0.00375 0.0440089
0.08125 0.63 0.00375 0.0453148
0.08375 0.63 0.00375 0.0466788
0.08625 0.63 0.00375 0.0480402
0.08875 0.63 0.00375 0.0501724
0.09125 0.63 0.00375 0.050154
0.09375 0.63 0.00375 0.0529695
0.09625 0.63 0.00375 0.0647871
0.09875 0.63 0.00375 0.0341125
0.00125 0.63 0.00625 0.0327354
0.00375 0.63 0.00625 0.0554466
0.00625 0.63 0.00625 0.0452191
0.00875 0.63 0.00625 0.0419156
0.01125 0.63 0.00625 0.0440088
0.01375 0.63 0.00625 0.0435068
0.01625 0.63 0.00625 0.0437913
0.01875 0.63 0.00625 0.0442313
0.02125 0.63 0.00625 0.0446075
0.02375 0.63 0.00625 0.0449331
0.02625 0.63 0.00625 0.045175
0.02875 0.63 0.00625 0.0453648
0.03125 0.63 0.00625 0.0455203
0.03375 0.63 0.00625 0.0456286
0.03625 0.63 0.00625 0.0457126
0.03875 0.63 0.00625 0.0457793
0.04125 0.63 0.00625 0.0458442
0.04375 0.63 0.00625 0.0459029
0.04625 0.63 0.00625 0.0459555
0.04875 0.63 0.00625 0.0459927
0.05125 0.63 0.00625 0.0459903
0.05375 0.63 0.00625 0.0459437
0.05625 0.63 0.00625 0.0458602
0.05875 0.63 0.00625 0.0457636
0.06125 0.63 0.00625 0.0456642
0.06375 0.63 0.00625 0.0455646
0.06625 0.63 0.00625 0.0454869
0.06875 0.63 0.00625 0.0454245
0.07125 0.63 0.00625 0.0453349
0.07375 0.63 0.00625 0.0451455
0.07625 0.63 0.00625 0.0448177
0.07875 0.63 0.00625 0.0444099
0.08125 0.63 0.00625 0.0439661
0.08375 0.63 0.00625 0.0434358
0.08625 0.63 0.00625 0.04287
0.08875 0.63 0.00625 0.0431318
0.09125 0.63 0.00625 0.0416633
0.09375 0.63 0.00625 0.0423054
0.09625 0.63 0.00625 0.0508927
0.09875 0.63 0.00625 0.0353819
0.00125 0.63 0.00875 0.0357101
0.00375 0.63 0.00875 0.0506748
0.00625 0.63 0.00875 0.0429408
0.00875 0.63 0.00875 0.0423171
0.01125 0.63 0.00875 0.0439994
0.01375 0.63 0.00875 0.0433649
0.01625 0.63 0.00875 0.0434482
0.01875 0.63 0.00875 0.0435667
0.02125 0.63 0.00875 0.043669
0.02375 0.63 0.00875 0.0437987
0.02625 0.63 0.00875 0.0439387
0.02875 0.63 0.00875 0.0441046
0.03125 0.63 0.00875 0.044287
0.03375 0.63 0.00875 0.0444686
0.03625 0.63 0.00875 0.0446408
0.03875 0.63 0.00875 0.0447889
0.04125 0.63 0.00875 0.04491
0.04375 0.63 0.00875 0.0450147
0.04625 0.63 0.00875 0.045096
0.04875 0.63 0.00875 0.0451445
0.05125 0.63 0.00875 0.0451495
0.05375 0.63 0.00875 0.0451049
0.05625 0.63 0.00875 0.0450166
0.05875 0.63 0.00875 0.0449131
0.06125 0.63 0.00875 0.0447954
0.06375 0.63 0.00875 0.0446648
0.06625 0.63 0.00875 0.044527
0.06875 0.63 0.00875 0.0443841
0.07125 0.63 0.00875 0.0442391
0.07375 0.63 0.00875 0.0440908
0.07625 0.63 0.00875 0.0439694
0.07875 0.63 0.00875 0.043898
0.08125 0.63 0.00875 0.0438726
0.08375 0.63 0.00875 0.0438737
0.08625 0.63 0.00875 0.0438266
0.08875 0.63 0.00875 0.044432
0.09125 0.63 0.00875 0.0435717
0.09375 0.63 0.00875 0.0428905
0.09625 0.63 0.00875 0.0492619
0.09875 0.63 0.00875 0.0379191
0.00125 0.63 0.01125 0.0358677
0.00375 0.63 0.01125 0.0506581
0.00625 0.63 0.01125 0.0429649
0.00875 0.63 0.01125 0.0422745
0.01125 0.63 0.01125 0.0439857
0.01375 0.63 0.01125 0.0433462
0.01625 0.63 0.01125 0.0434351
0.01875 0.63 0.01125 0.0435576
0.02125 0.63 0.01125 0.0436631
0.02375 0.63 0.01125 0.0437782
0.02625 0.63 0.01125 0.0439074
0.02875 0.63 0.01125 0.0440342
0.03125 0.63 0.01125 0.0441599
0.03375 0.63 0.01125 0.0443236
0.03625 0.63 0.01125 0.0445107
0.03875 0.63 0.01125 0.0447034
0.04125 0.63 0.01125 0.0448946
0.04375 0.63 0.01125 0.0450633
0.04625 0.63 0.01125 0.0451964
0.04875 0.63 0.01125 0.0452846
0.05125 0.63 0.01125 0.0453158
0.05375 0.63 0.01125 0.0452744
0.05625 0.63 0.01125 0.0451658
0.05875 0.63 0.01125 0.0449938
0.06125 0.63 0.01125 0.0447861
0.06375 0.63 0.01125 0.044565
0.06625 0.63 0.01125 0.0443491
0.06875 0.63 0.01125 0.0441637
0.07125 0.63 0.01125 0.0440007
0.07375 0.63 0.01125 0.0438538
0.07625 0.63 0.01125 0.0437444
0.07875 0.63 0.01125 0.0436692
0.08125 0.63 0.01125 0.0436627
0.08375 0.63 0.01125 0.0436913
0.08625 0.63 0.01125 0.0436663
0.08875 0.63 0.01125 0.044323
0.09125 0.63 0.01125 0.0434458
0.09375 0.63 0.01125 0.0425904
0.09625 0.63 0.01125 0.0488559
0.09875 0.63 0.01125 0.0377939
0.00125 0.63 0.01375 0.0327731
0.00375 0.63 0.01375 0.055151
0.00625 0.63 0.01375 0.044971
0.00875 0.63 0.01375 0.0414758
0.01125 0.63 0.01375 0.0436337
0.01375 0.63 0.01375 0.0430418
0.01625 0.63 0.01375 0.0433025
0.01875 0.63 0.01375 0.0437602
0.02125 0.63 0.01375 0.0442031
0.02375 0.63 0.01375 0.0446073
0.02625 0.63 0.01375 0.0449522
0.02875 0.63 0.01375 0.0452039
0.03125 0.63 0.01375 0.0454231
0.03375 0.63 0.01375 0.0456567
0.03625 0.63 0.01375 0.0458689
0.03875 0.63 0.01375 0.0460414
0.04125 0.63 0.01375 0.0461541
0.04375 0.63 0.01375 0.0462098
0.04625 0.63 0.01375 0.0462482
0.04875 0.63 0.01375 0.0462896
0.05125 0.63 0.01375 0.046321
0.05375 0.63 0.01375 0.0463281
0.05625 0.63 0.01375 0.046284
0.05875 0.63 0.01375 0.0461969
0.06125 0.63 0.01375 0.0460716
0.06375 0.63 0.01375 0.0459212
0.06625 0.63 0.01375 0.0457411
0.06875 0.63 0.01375 0.0455549
0.07125 0.63 0.01375 0.0453345
0.07375 0.63 0.01375 0.045031
0.07625 0.63 0.01375 0.0446858
0.07875 0.63 0.01375 0.0442771
0.08125 0.63 0.01375 0.0438215
0.08375 0.63 0.01375 0.0433534
0.08625 0.63 0.01375 0.0429014
0.08875 0.63 0.01375 0.0432348
0.09125 0.63 0.01375 0.0418884
0.09375 0.63 0.01375 0.0425469
0.09625 0.63 0.01375 0.0515795
0.09875 0.63 0.01375 0.0351883
0.00125 0.63 0.01625 0.0305041
0.00375 0.63 0.01625 0.0707074
0.00625 0.63 0.01625 0.0572503
0.00875 0.63 0.01625 0.0516145
0.01125 0.63 0.01625 0.0523923
0.01375 0.63 0.01625 0.0506134
0.01625 0.63 0.01625 0.049212
0.01875 0.63 0.01625 0.0478524
0.02125 0.63 0.01625 0.0464996
0.02375 0.63 0.01625 0.0451977
0.02625 0.63 0.01625 0.0439278
0.02875 0.63 0.01625 0.04272
0.03125 0.63 0.01625 0.0416229
0.03375 0.63 0.01625 0.0406914
0.03625 0.63 0.01625 0.0398768
0.03875 0.63 0.01625 0.0391365
0.04125 0.63 0.01625 0.0384749
0.04375 0.63 0.01625 0.0379327
0.04625 0.63 0.01625 0.037551
0.04875 0.63 0.01625 0.0373315
0.05125 0.63 0.01625 0.0372486
0.05375 0.63 0.01625 0.0372842
0.05625 0.63 0.01625 0.0374254
0.05875 0.63 0.01625 0.0376776
0.06125 0.63 0.01625 0.0380444
0.06375 0.63 0.01625 0.0385137
0.06625 0.63 0.01625 0.0390701
0.06875 0.63 0.01625 0.0397641
0.07125 0.63 0.01625 0.0406094
0.07375 0.63 0.01625 0.0416327
0.07625 0.63 0.01625 0.0428284
0.07875 0.63 0.01625 0.0441342
0.08125 0.63 0.01625 0.0455333
0.08375 0.63 0.01625 0.0469873
0.08625 0.63 0.01625 0.048438
0.08875 0.63 0.01625 0.0504144
0.09125 0.63 0.01625 0.0503011
0.09375 0.63 0.01625 0.0528406
0.09625 0.63 0.01625 0.0644716
0.09875 0.63 0.01625 0.0342194
0.00125 0.63 0.01875 0.0383066
0.00375 0.63 0.01875 0.0299358
0.00625 0.63 0.01875 0.0318705
0.00875 0.63 0.01875 0.0353495
0.01125 0.63 0.01875 0.03605
0.01375 0.63 0.01875 0.0374937
0.01625 0.63 0.01875 0.0388742
0.01875 0.63 0.01875 0.0401971
0.02125 0.63 0.01875 0.0414471
0.02375 0.63 0.01875 0.0426933
0.02625 0.63 0.01875 0.0438447
0.02875 0.63 0.01875 0.0450044
0.03125 0.63 0.01875 0.0461193
0.03375 0.63 0.01875 0.0470824
0.03625 0.63 0.01875 0.0479654
0.03875 0.63 0.01875 0.0487603
0.04125 0.63 0.01875 0.0494318
0.04375 0.63 0.01875 0.049939
0.04625 0.63 0.01875 0.0503095
0.04875 0.63 0.01875 0.0505801
0.05125 0.63 0.01875 0.0507509
0.05375 0.63 0.01875 0.0507565
0.05625 0.63 0.01875 0.0505506
0.05875 0.63 0.01875 0.0501678
0.06125 0.63 0.01875 0.0496322
0.06375 0.63 0.01875 0.048931
0.06625 0.63 0.01875 0.0481008
0.06875 0.63 0.01875 0.0472363
0.07125 0.63 0.01875 0.0463509
0.07375 0.63 0.01875 0.0453726
0.07625 0.63 0.01875 0.0442885
0.07875 0.63 0.01875 0.0431557
0.08125 0.63 0.01875 0.0420261
0.08375 0.63 0.01875 0.0408621
0.08625 0.63 0.01875 0.0397157
0.08875 0.63 0.01875 0.038552
0.09125 0.63 0.01875 0.0375268
0.09375 0.63 0.01875 0.0348634
0.09625 0.63 0.01875 0.0331467
0.09875 0.63 0.01875 0.0394827
