# alphaMean.water  FACE_DATA 320
#  x  y  z  alphaMean.water
0.00125 0.63 0.00125 0.961819
0.00375 0.63 0.00125 0.969985
0.00625 0.63 0.00125 0.967811
0.00875 0.63 0.00125 0.964257
0.01125 0.63 0.00125 0.963667
0.01375 0.63 0.00125 0.96215
0.01625 0.63 0.00125 0.960735
0.01875 0.63 0.00125 0.959443
0.02125 0.63 0.00125 0.958181
0.02375 0.63 0.00125 0.956956
0.02625 0.63 0.00125 0.955772
0.02875 0.63 0.00125 0.954686
0.03125 0.63 0.00125 0.95374
0.03375 0.63 0.00125 0.95291
0.03625 0.63 0.00125 0.952189
0.03875 0.63 0.00125 0.951528
0.04125 0.63 0.00125 0.950925
0.04375 0.63 0.00125 0.950396
0.04625 0.63 0.00125 0.949983
0.04875 0.63 0.00125 0.949727
0.05125 0.63 0.00125 0.949631
0.05375 0.63 0.00125 0.949691
0.05625 0.63 0.00125 0.949899
0.05875 0.63 0.00125 0.950282
0.06125 0.63 0.00125 0.950794
0.06375 0.63 0.00125 0.951413
0.06625 0.63 0.00125 0.952131
0.06875 0.63 0.00125 0.952953
0.07125 0.63 0.00125 0.953768
0.07375 0.63 0.00125 0.954555
0.07625 0.63 0.00125 0.955428
0.07875 0.63 0.00125 0.956466
0.08125 0.63 0.00125 0.957511
0.08375 0.63 0.00125 0.958509
0.08625 0.63 0.00125 0.959537
0.08875 0.63 0.00125 0.960823
0.09125 0.63 0.00125 0.961909
0.09375 0.63 0.00125 0.96491
0.09625 0.63 0.00125 0.96671
0.09875 0.63 0.00125 0.960639
0.00125 0.63 0.00375 0.969588
0.00375 0.63 0.00375 0.929541
0.00625 0.63 0.00375 0.943056
0.00875 0.63 0.00375 0.948904
0.01125 0.63 0.00375 0.948062
0.01375 0.63 0.00375 0.949858
0.01625 0.63 0.00375 0.951254
0.01875 0.63 0.00375 0.952642
0.02125 0.63 0.00375 0.954088
0.02375 0.63 0.00375 0.95552
0.02625 0.63 0.00375 0.956883
0.02875 0.63 0.00375 0.958127
0.03125 0.63 0.00375 0.959193
0.03375 0.63 0.00375 0.960072
0.03625 0.63 0.00375 0.960765
0.03875 0.63 0.00375 0.961259
0.04125 0.63 0.00375 0.961543
0.04375 0.63 0.00375 0.961686
0.04625 0.63 0.00375 0.961733
0.04875 0.63 0.00375 0.961732
0.05125 0.63 0.00375 0.96172
0.05375 0.63 0.00375 0.961712
0.05625 0.63 0.00375 0.961718
0.05875 0.63 0.00375 0.961742
0.06125 0.63 0.00375 0.961729
0.06375 0.63 0.00375 0.961568
0.06625 0.63 0.00375 0.961158
0.06875 0.63 0.00375 0.960464
0.07125 0.63 0.00375 0.959524
0.07375 0.63 0.00375 0.958425
0.07625 0.63 0.00375 0.95722
0.07875 0.63 0.00375 0.955991
0.08125 0.63 0.00375 0.954685
0.08375 0.63 0.00375 0.953321
0.08625 0.63 0.00375 0.95196
0.08875 0.63 0.00375 0.949828
0.09125 0.63 0.00375 0.949846
0.09375 0.63 0.00375 0.94703
0.09625 0.63 0.00375 0.935213
0.09875 0.63 0.00375 0.965887
0.00125 0.63 0.00625 0.967265
0.00375 0.63 0.00625 0.944553
0.00625 0.63 0.00625 0.954781
0.00875 0.63 0.00625 0.958084
0.01125 0.63 0.00625 0.955991
0.01375 0.63 0.00625 0.956493
0.01625 0.63 0.00625 0.956209
0.01875 0.63 0.00625 0.955769
0.02125 0.63 0.00625 0.955393
0.02375 0.63 0.00625 0.955067
0.02625 0.63 0.00625 0.954825
0.02875 0.63 0.00625 0.954635
0.03125 0.63 0.00625 0.95448
0.03375 0.63 0.00625 0.954371
0.03625 0.63 0.00625 0.954287
0.03875 0.63 0.00625 0.954221
0.04125 0.63 0.00625 0.954156
0.04375 0.63 0.00625 0.954097
0.04625 0.63 0.00625 0.954044
0.04875 0.63 0.00625 0.954007
0.05125 0.63 0.00625 0.95401
0.05375 0.63 0.00625 0.954056
0.05625 0.63 0.00625 0.95414
0.05875 0.63 0.00625 0.954236
0.06125 0.63 0.00625 0.954336
0.06375 0.63 0.00625 0.954435
0.06625 0.63 0.00625 0.954513
0.06875 0.63 0.00625 0.954575
0.07125 0.63 0.00625 0.954665
0.07375 0.63 0.00625 0.954855
0.07625 0.63 0.00625 0.955182
0.07875 0.63 0.00625 0.95559
0.08125 0.63 0.00625 0.956034
0.08375 0.63 0.00625 0.956564
0.08625 0.63 0.00625 0.95713
0.08875 0.63 0.00625 0.956868
0.09125 0.63 0.00625 0.958337
0.09375 0.63 0.00625 0.957695
0.09625 0.63 0.00625 0.949107
0.09875 0.63 0.00625 0.964618
0.00125 0.63 0.00875 0.96429
0.00375 0.63 0.00875 0.949325
0.00625 0.63 0.00875 0.957059
0.00875 0.63 0.00875 0.957683
0.01125 0.63 0.00875 0.956001
0.01375 0.63 0.00875 0.956635
0.01625 0.63 0.00875 0.956552
0.01875 0.63 0.00875 0.956433
0.02125 0.63 0.00875 0.956331
0.02375 0.63 0.00875 0.956201
0.02625 0.63 0.00875 0.956061
0.02875 0.63 0.00875 0.955895
0.03125 0.63 0.00875 0.955713
0.03375 0.63 0.00875 0.955531
0.03625 0.63 0.00875 0.955359
0.03875 0.63 0.00875 0.955211
0.04125 0.63 0.00875 0.95509
0.04375 0.63 0.00875 0.954985
0.04625 0.63 0.00875 0.954904
0.04875 0.63 0.00875 0.954856
0.05125 0.63 0.00875 0.954851
0.05375 0.63 0.00875 0.954895
0.05625 0.63 0.00875 0.954983
0.05875 0.63 0.00875 0.955087
0.06125 0.63 0.00875 0.955205
0.06375 0.63 0.00875 0.955335
0.06625 0.63 0.00875 0.955473
0.06875 0.63 0.00875 0.955616
0.07125 0.63 0.00875 0.955761
0.07375 0.63 0.00875 0.955909
0.07625 0.63 0.00875 0.956031
0.07875 0.63 0.00875 0.956102
0.08125 0.63 0.00875 0.956127
0.08375 0.63 0.00875 0.956126
0.08625 0.63 0.00875 0.956173
0.08875 0.63 0.00875 0.955568
0.09125 0.63 0.00875 0.956428
0.09375 0.63 0.00875 0.95711
0.09625 0.63 0.00875 0.950738
0.09875 0.63 0.00875 0.962081
0.00125 0.63 0.01125 0.964132
0.00375 0.63 0.01125 0.949342
0.00625 0.63 0.01125 0.957035
0.00875 0.63 0.01125 0.957725
0.01125 0.63 0.01125 0.956014
0.01375 0.63 0.01125 0.956654
0.01625 0.63 0.01125 0.956565
0.01875 0.63 0.01125 0.956442
0.02125 0.63 0.01125 0.956337
0.02375 0.63 0.01125 0.956222
0.02625 0.63 0.01125 0.956093
0.02875 0.63 0.01125 0.955966
0.03125 0.63 0.01125 0.95584
0.03375 0.63 0.01125 0.955676
0.03625 0.63 0.01125 0.955489
0.03875 0.63 0.01125 0.955297
0.04125 0.63 0.01125 0.955105
0.04375 0.63 0.01125 0.954937
0.04625 0.63 0.01125 0.954804
0.04875 0.63 0.01125 0.954715
0.05125 0.63 0.01125 0.954684
0.05375 0.63 0.01125 0.954726
0.05625 0.63 0.01125 0.954834
0.05875 0.63 0.01125 0.955006
0.06125 0.63 0.01125 0.955214
0.06375 0.63 0.01125 0.955435
0.06625 0.63 0.01125 0.955651
0.06875 0.63 0.01125 0.955836
0.07125 0.63 0.01125 0.955999
0.07375 0.63 0.01125 0.956146
0.07625 0.63 0.01125 0.956256
0.07875 0.63 0.01125 0.956331
0.08125 0.63 0.01125 0.956337
0.08375 0.63 0.01125 0.956309
0.08625 0.63 0.01125 0.956334
0.08875 0.63 0.01125 0.955677
0.09125 0.63 0.01125 0.956554
0.09375 0.63 0.01125 0.95741
0.09625 0.63 0.01125 0.951144
0.09875 0.63 0.01125 0.962206
0.00125 0.63 0.01375 0.967227
0.00375 0.63 0.01375 0.944849
0.00625 0.63 0.01375 0.955029
0.00875 0.63 0.01375 0.958524
0.01125 0.63 0.01375 0.956366
0.01375 0.63 0.01375 0.956958
0.01625 0.63 0.01375 0.956698
0.01875 0.63 0.01375 0.95624
0.02125 0.63 0.01375 0.955797
0.02375 0.63 0.01375 0.955393
0.02625 0.63 0.01375 0.955048
0.02875 0.63 0.01375 0.954796
0.03125 0.63 0.01375 0.954577
0.03375 0.63 0.01375 0.954343
0.03625 0.63 0.01375 0.954131
0.03875 0.63 0.01375 0.953959
0.04125 0.63 0.01375 0.953846
0.04375 0.63 0.01375 0.95379
0.04625 0.63 0.01375 0.953752
0.04875 0.63 0.01375 0.95371
0.05125 0.63 0.01375 0.953679
0.05375 0.63 0.01375 0.953672
0.05625 0.63 0.01375 0.953716
0.05875 0.63 0.01375 0.953803
0.06125 0.63 0.01375 0.953928
0.06375 0.63 0.01375 0.954079
0.06625 0.63 0.01375 0.954259
0.06875 0.63 0.01375 0.954445
0.07125 0.63 0.01375 0.954665
0.07375 0.63 0.01375 0.954969
0.07625 0.63 0.01375 0.955314
0.07875 0.63 0.01375 0.955723
0.08125 0.63 0.01375 0.956179
0.08375 0.63 0.01375 0.956647
0.08625 0.63 0.01375 0.957099
0.08875 0.63 0.01375 0.956765
0.09125 0.63 0.01375 0.958112
0.09375 0.63 0.01375 0.957453
0.09625 0.63 0.01375 0.94842
0.09875 0.63 0.01375 0.964812
0.00125 0.63 0.01625 0.969496
0.00375 0.63 0.01625 0.929293
0.00625 0.63 0.01625 0.94275
0.00875 0.63 0.01625 0.948386
0.01125 0.63 0.01625 0.947608
0.01375 0.63 0.01625 0.949387
0.01625 0.63 0.01625 0.950788
0.01875 0.63 0.01625 0.952148
0.02125 0.63 0.01625 0.9535
0.02375 0.63 0.01625 0.954802
0.02625 0.63 0.01625 0.956072
0.02875 0.63 0.01625 0.95728
0.03125 0.63 0.01625 0.958377
0.03375 0.63 0.01625 0.959309
0.03625 0.63 0.01625 0.960123
0.03875 0.63 0.01625 0.960864
0.04125 0.63 0.01625 0.961525
0.04375 0.63 0.01625 0.962067
0.04625 0.63 0.01625 0.962449
0.04875 0.63 0.01625 0.962668
0.05125 0.63 0.01625 0.962751
0.05375 0.63 0.01625 0.962716
0.05625 0.63 0.01625 0.962575
0.05875 0.63 0.01625 0.962322
0.06125 0.63 0.01625 0.961956
0.06375 0.63 0.01625 0.961486
0.06625 0.63 0.01625 0.96093
0.06875 0.63 0.01625 0.960236
0.07125 0.63 0.01625 0.959391
0.07375 0.63 0.01625 0.958367
0.07625 0.63 0.01625 0.957172
0.07875 0.63 0.01625 0.955866
0.08125 0.63 0.01625 0.954467
0.08375 0.63 0.01625 0.953013
0.08625 0.63 0.01625 0.951562
0.08875 0.63 0.01625 0.949586
0.09125 0.63 0.01625 0.949699
0.09375 0.63 0.01625 0.947159
0.09625 0.63 0.01625 0.935528
0.09875 0.63 0.01625 0.965781
0.00125 0.63 0.01875 0.961693
0.00375 0.63 0.01875 0.970064
0.00625 0.63 0.01875 0.968129
0.00875 0.63 0.01875 0.96465
0.01125 0.63 0.01875 0.96395
0.01375 0.63 0.01875 0.962506
0.01625 0.63 0.01875 0.961126
0.01875 0.63 0.01875 0.959803
0.02125 0.63 0.01875 0.958553
0.02375 0.63 0.01875 0.957307
0.02625 0.63 0.01875 0.956155
0.02875 0.63 0.01875 0.954996
0.03125 0.63 0.01875 0.953881
0.03375 0.63 0.01875 0.952918
0.03625 0.63 0.01875 0.952035
0.03875 0.63 0.01875 0.95124
0.04125 0.63 0.01875 0.950568
0.04375 0.63 0.01875 0.950061
0.04625 0.63 0.01875 0.94969
0.04875 0.63 0.01875 0.94942
0.05125 0.63 0.01875 0.949249
0.05375 0.63 0.01875 0.949243
0.05625 0.63 0.01875 0.949449
0.05875 0.63 0.01875 0.949832
0.06125 0.63 0.01875 0.950368
0.06375 0.63 0.01875 0.951069
0.06625 0.63 0.01875 0.951899
0.06875 0.63 0.01875 0.952764
0.07125 0.63 0.01875 0.953649
0.07375 0.63 0.01875 0.954627
0.07625 0.63 0.01875 0.955711
0.07875 0.63 0.01875 0.956844
0.08125 0.63 0.01875 0.957974
0.08375 0.63 0.01875 0.959138
0.08625 0.63 0.01875 0.960284
0.08875 0.63 0.01875 0.961448
0.09125 0.63 0.01875 0.962473
0.09375 0.63 0.01875 0.965137
0.09625 0.63 0.01875 0.966853
0.09875 0.63 0.01875 0.960517
