# alphaMean.water  FACE_DATA 320
#  x  y  z  alphaMean.water
0.00125 0.08 0.00125 0.995022
0.00375 0.08 0.00125 0.992721
0.00625 0.08 0.00125 0.99262
0.00875 0.08 0.00125 0.993475
0.01125 0.08 0.00125 0.993915
0.01375 0.08 0.00125 0.993724
0.01625 0.08 0.00125 0.992092
0.01875 0.08 0.00125 0.986627
0.02125 0.08 0.00125 0.977942
0.02375 0.08 0.00125 0.968597
0.02625 0.08 0.00125 0.960021
0.02875 0.08 0.00125 0.953187
0.03125 0.08 0.00125 0.950613
0.03375 0.08 0.00125 0.950975
0.03625 0.08 0.00125 0.952023
0.03875 0.08 0.00125 0.954434
0.04125 0.08 0.00125 0.957617
0.04375 0.08 0.00125 0.960668
0.04625 0.08 0.00125 0.962427
0.04875 0.08 0.00125 0.963003
0.05125 0.08 0.00125 0.962474
0.05375 0.08 0.00125 0.960583
0.05625 0.08 0.00125 0.955949
0.05875 0.08 0.00125 0.950787
0.06125 0.08 0.00125 0.948015
0.06375 0.08 0.00125 0.950411
0.06625 0.08 0.00125 0.955651
0.06875 0.08 0.00125 0.962086
0.07125 0.08 0.00125 0.969844
0.07375 0.08 0.00125 0.978422
0.07625 0.08 0.00125 0.986164
0.07875 0.08 0.00125 0.991057
0.08125 0.08 0.00125 0.993666
0.08375 0.08 0.00125 0.995131
0.08625 0.08 0.00125 0.995705
0.08875 0.08 0.00125 0.995481
0.09125 0.08 0.00125 0.994908
0.09375 0.08 0.00125 0.994292
0.09625 0.08 0.00125 0.994203
0.09875 0.08 0.00125 0.996284
0.00125 0.08 0.00375 0.989554
0.00375 0.08 0.00375 0.970083
0.00625 0.08 0.00375 0.977165
0.00875 0.08 0.00375 0.982823
0.01125 0.08 0.00375 0.985727
0.01375 0.08 0.00375 0.987425
0.01625 0.08 0.00375 0.988302
0.01875 0.08 0.00375 0.986747
0.02125 0.08 0.00375 0.982277
0.02375 0.08 0.00375 0.976324
0.02625 0.08 0.00375 0.970115
0.02875 0.08 0.00375 0.965565
0.03125 0.08 0.00375 0.963752
0.03375 0.08 0.00375 0.964282
0.03625 0.08 0.00375 0.965504
0.03875 0.08 0.00375 0.966644
0.04125 0.08 0.00375 0.967788
0.04375 0.08 0.00375 0.968872
0.04625 0.08 0.00375 0.969429
0.04875 0.08 0.00375 0.969438
0.05125 0.08 0.00375 0.969018
0.05375 0.08 0.00375 0.968265
0.05625 0.08 0.00375 0.966704
0.05875 0.08 0.00375 0.965509
0.06125 0.08 0.00375 0.965217
0.06375 0.08 0.00375 0.966784
0.06625 0.08 0.00375 0.969422
0.06875 0.08 0.00375 0.973004
0.07125 0.08 0.00375 0.977962
0.07375 0.08 0.00375 0.983481
0.07625 0.08 0.00375 0.988485
0.07875 0.08 0.00375 0.991882
0.08125 0.08 0.00375 0.993204
0.08375 0.08 0.00375 0.9929
0.08625 0.08 0.00375 0.991027
0.08875 0.08 0.00375 0.987692
0.09125 0.08 0.00375 0.983494
0.09375 0.08 0.00375 0.97843
0.09625 0.08 0.00375 0.973267
0.09875 0.08 0.00375 0.989856
0.00125 0.08 0.00625 0.988679
0.00375 0.08 0.00625 0.975701
0.00625 0.08 0.00625 0.983823
0.00875 0.08 0.00625 0.988353
0.01125 0.08 0.00625 0.989958
0.01375 0.08 0.00625 0.991094
0.01625 0.08 0.00625 0.99176
0.01875 0.08 0.00625 0.990289
0.02125 0.08 0.00625 0.985872
0.02375 0.08 0.00625 0.979212
0.02625 0.08 0.00625 0.971757
0.02875 0.08 0.00625 0.965613
0.03125 0.08 0.00625 0.962373
0.03375 0.08 0.00625 0.96132
0.03625 0.08 0.00625 0.96178
0.03875 0.08 0.00625 0.96254
0.04125 0.08 0.00625 0.963651
0.04375 0.08 0.00625 0.964821
0.04625 0.08 0.00625 0.965433
0.04875 0.08 0.00625 0.965519
0.05125 0.08 0.00625 0.965489
0.05375 0.08 0.00625 0.965064
0.05625 0.08 0.00625 0.963337
0.05875 0.08 0.00625 0.961799
0.06125 0.08 0.00625 0.961768
0.06375 0.08 0.00625 0.963408
0.06625 0.08 0.00625 0.966684
0.06875 0.08 0.00625 0.971356
0.07125 0.08 0.00625 0.977429
0.07375 0.08 0.00625 0.983883
0.07625 0.08 0.00625 0.989609
0.07875 0.08 0.00625 0.993366
0.08125 0.08 0.00625 0.994937
0.08375 0.08 0.00625 0.994779
0.08625 0.08 0.00625 0.993199
0.08875 0.08 0.00625 0.990403
0.09125 0.08 0.00625 0.986562
0.09375 0.08 0.00625 0.980619
0.09625 0.08 0.00625 0.973522
0.09875 0.08 0.00625 0.988038
0.00125 0.08 0.00875 0.988813
0.00375 0.08 0.00875 0.981925
0.00625 0.08 0.00875 0.988273
0.00875 0.08 0.00875 0.991403
0.01125 0.08 0.00875 0.992848
0.01375 0.08 0.00875 0.993872
0.01625 0.08 0.00875 0.994127
0.01875 0.08 0.00875 0.991817
0.02125 0.08 0.00875 0.986165
0.02375 0.08 0.00875 0.978302
0.02625 0.08 0.00875 0.969675
0.02875 0.08 0.00875 0.962105
0.03125 0.08 0.00875 0.957789
0.03375 0.08 0.00875 0.95551
0.03625 0.08 0.00875 0.955055
0.03875 0.08 0.00875 0.955565
0.04125 0.08 0.00875 0.95714
0.04375 0.08 0.00875 0.958984
0.04625 0.08 0.00875 0.960074
0.04875 0.08 0.00875 0.960304
0.05125 0.08 0.00875 0.960435
0.05375 0.08 0.00875 0.95997
0.05625 0.08 0.00875 0.957839
0.05875 0.08 0.00875 0.955467
0.06125 0.08 0.00875 0.954933
0.06375 0.08 0.00875 0.956512
0.06625 0.08 0.00875 0.961068
0.06875 0.08 0.00875 0.96718
0.07125 0.08 0.00875 0.974336
0.07375 0.08 0.00875 0.98191
0.07625 0.08 0.00875 0.98862
0.07875 0.08 0.00875 0.993097
0.08125 0.08 0.00875 0.994942
0.08375 0.08 0.00875 0.995008
0.08625 0.08 0.00875 0.993746
0.08875 0.08 0.00875 0.991427
0.09125 0.08 0.00875 0.988646
0.09375 0.08 0.00875 0.9837
0.09625 0.08 0.00875 0.976283
0.09875 0.08 0.00875 0.987787
0.00125 0.08 0.01125 0.988729
0.00375 0.08 0.01125 0.982807
0.00625 0.08 0.01125 0.988735
0.00875 0.08 0.01125 0.991845
0.01125 0.08 0.01125 0.993162
0.01375 0.08 0.01125 0.993946
0.01625 0.08 0.01125 0.993793
0.01875 0.08 0.01125 0.99124
0.02125 0.08 0.01125 0.985662
0.02375 0.08 0.01125 0.978336
0.02625 0.08 0.01125 0.970345
0.02875 0.08 0.01125 0.962966
0.03125 0.08 0.01125 0.958256
0.03375 0.08 0.01125 0.955615
0.03625 0.08 0.01125 0.954787
0.03875 0.08 0.01125 0.955303
0.04125 0.08 0.01125 0.956695
0.04375 0.08 0.01125 0.958352
0.04625 0.08 0.01125 0.959089
0.04875 0.08 0.01125 0.959166
0.05125 0.08 0.01125 0.959185
0.05375 0.08 0.01125 0.958771
0.05625 0.08 0.01125 0.957117
0.05875 0.08 0.01125 0.954804
0.06125 0.08 0.01125 0.95423
0.06375 0.08 0.01125 0.955748
0.06625 0.08 0.01125 0.959857
0.06875 0.08 0.01125 0.965773
0.07125 0.08 0.01125 0.972582
0.07375 0.08 0.01125 0.979983
0.07625 0.08 0.01125 0.987243
0.07875 0.08 0.01125 0.992139
0.08125 0.08 0.01125 0.993953
0.08375 0.08 0.01125 0.993809
0.08625 0.08 0.01125 0.992376
0.08875 0.08 0.01125 0.989963
0.09125 0.08 0.01125 0.987134
0.09375 0.08 0.01125 0.982844
0.09625 0.08 0.01125 0.976449
0.09875 0.08 0.01125 0.98759
0.00125 0.08 0.01375 0.988199
0.00375 0.08 0.01375 0.977724
0.00625 0.08 0.01375 0.98389
0.00875 0.08 0.01375 0.988098
0.01125 0.08 0.01375 0.989976
0.01375 0.08 0.01375 0.991201
0.01625 0.08 0.01375 0.991289
0.01875 0.08 0.01375 0.989555
0.02125 0.08 0.01375 0.985767
0.02375 0.08 0.01375 0.98051
0.02625 0.08 0.01375 0.974435
0.02875 0.08 0.01375 0.968364
0.03125 0.08 0.01375 0.96461
0.03375 0.08 0.01375 0.962445
0.03625 0.08 0.01375 0.961901
0.03875 0.08 0.01375 0.96241
0.04125 0.08 0.01375 0.963246
0.04375 0.08 0.01375 0.964181
0.04625 0.08 0.01375 0.964285
0.04875 0.08 0.01375 0.963885
0.05125 0.08 0.01375 0.963568
0.05375 0.08 0.01375 0.963276
0.05625 0.08 0.01375 0.962663
0.05875 0.08 0.01375 0.960757
0.06125 0.08 0.01375 0.960125
0.06375 0.08 0.01375 0.961122
0.06625 0.08 0.01375 0.963973
0.06875 0.08 0.01375 0.968525
0.07125 0.08 0.01375 0.973754
0.07375 0.08 0.01375 0.979629
0.07625 0.08 0.01375 0.985701
0.07875 0.08 0.01375 0.989687
0.08125 0.08 0.01375 0.991115
0.08375 0.08 0.01375 0.990603
0.08625 0.08 0.01375 0.988987
0.08875 0.08 0.01375 0.986526
0.09125 0.08 0.01375 0.983542
0.09375 0.08 0.01375 0.978898
0.09625 0.08 0.01375 0.97371
0.09875 0.08 0.01375 0.987005
0.00125 0.08 0.01625 0.989113
0.00375 0.08 0.01625 0.970504
0.00625 0.08 0.01625 0.973549
0.00875 0.08 0.01625 0.979635
0.01125 0.08 0.01625 0.983544
0.01375 0.08 0.01625 0.986411
0.01625 0.08 0.01625 0.987432
0.01875 0.08 0.01625 0.986918
0.02125 0.08 0.01625 0.984541
0.02375 0.08 0.01625 0.980353
0.02625 0.08 0.01625 0.975187
0.02875 0.08 0.01625 0.970136
0.03125 0.08 0.01625 0.967216
0.03375 0.08 0.01625 0.965654
0.03625 0.08 0.01625 0.965465
0.03875 0.08 0.01625 0.966135
0.04125 0.08 0.01625 0.966884
0.04375 0.08 0.01625 0.967407
0.04625 0.08 0.01625 0.967174
0.04875 0.08 0.01625 0.966886
0.05125 0.08 0.01625 0.966745
0.05375 0.08 0.01625 0.967187
0.05625 0.08 0.01625 0.966889
0.05875 0.08 0.01625 0.965124
0.06125 0.08 0.01625 0.963536
0.06375 0.08 0.01625 0.963544
0.06625 0.08 0.01625 0.964945
0.06875 0.08 0.01625 0.967841
0.07125 0.08 0.01625 0.971848
0.07375 0.08 0.01625 0.976968
0.07625 0.08 0.01625 0.982193
0.07875 0.08 0.01625 0.985538
0.08125 0.08 0.01625 0.986831
0.08375 0.08 0.01625 0.986151
0.08625 0.08 0.01625 0.98449
0.08875 0.08 0.01625 0.982185
0.09125 0.08 0.01625 0.979177
0.09375 0.08 0.01625 0.974802
0.09625 0.08 0.01625 0.972609
0.09875 0.08 0.01625 0.98884
0.00125 0.08 0.01875 0.994805
0.00375 0.08 0.01875 0.992344
0.00625 0.08 0.01875 0.99135
0.00875 0.08 0.01875 0.991734
0.01125 0.08 0.01875 0.992593
0.01375 0.08 0.01875 0.992308
0.01625 0.08 0.01875 0.990664
0.01875 0.08 0.01875 0.987352
0.02125 0.08 0.01875 0.98219
0.02375 0.08 0.01875 0.974858
0.02625 0.08 0.01875 0.966079
0.02875 0.08 0.01875 0.958299
0.03125 0.08 0.01875 0.953235
0.03375 0.08 0.01875 0.950503
0.03625 0.08 0.01875 0.950383
0.03875 0.08 0.01875 0.95148
0.04125 0.08 0.01875 0.952885
0.04375 0.08 0.01875 0.953153
0.04625 0.08 0.01875 0.953139
0.04875 0.08 0.01875 0.95351
0.05125 0.08 0.01875 0.954438
0.05375 0.08 0.01875 0.955461
0.05625 0.08 0.01875 0.953969
0.05875 0.08 0.01875 0.950973
0.06125 0.08 0.01875 0.949474
0.06375 0.08 0.01875 0.950512
0.06625 0.08 0.01875 0.953938
0.06875 0.08 0.01875 0.959252
0.07125 0.08 0.01875 0.966185
0.07375 0.08 0.01875 0.97387
0.07625 0.08 0.01875 0.981306
0.07875 0.08 0.01875 0.987245
0.08125 0.08 0.01875 0.9914
0.08375 0.08 0.01875 0.993138
0.08625 0.08 0.01875 0.993264
0.08875 0.08 0.01875 0.992746
0.09125 0.08 0.01875 0.991939
0.09375 0.08 0.01875 0.991263
0.09625 0.08 0.01875 0.992337
0.09875 0.08 0.01875 0.995235
