# pMean  FACE_DATA 320
#  x  y  z  pMean
0.00125 0.08 0.00125 108579
0.00375 0.08 0.00125 108579
0.00625 0.08 0.00125 108579
0.00875 0.08 0.00125 108579
0.01125 0.08 0.00125 108579
0.01375 0.08 0.00125 108578
0.01625 0.08 0.00125 108578
0.01875 0.08 0.00125 108578
0.02125 0.08 0.00125 108577
0.02375 0.08 0.00125 108577
0.02625 0.08 0.00125 108576
0.02875 0.08 0.00125 108576
0.03125 0.08 0.00125 108575
0.03375 0.08 0.00125 108574
0.03625 0.08 0.00125 108574
0.03875 0.08 0.00125 108573
0.04125 0.08 0.00125 108573
0.04375 0.08 0.00125 108572
0.04625 0.08 0.00125 108572
0.04875 0.08 0.00125 108572
0.05125 0.08 0.00125 108572
0.05375 0.08 0.00125 108572
0.05625 0.08 0.00125 108571
0.05875 0.08 0.00125 108571
0.06125 0.08 0.00125 108572
0.06375 0.08 0.00125 108572
0.06625 0.08 0.00125 108572
0.06875 0.08 0.00125 108573
0.07125 0.08 0.00125 108573
0.07375 0.08 0.00125 108574
0.07625 0.08 0.00125 108574
0.07875 0.08 0.00125 108574
0.08125 0.08 0.00125 108574
0.08375 0.08 0.00125 108575
0.08625 0.08 0.00125 108575
0.08875 0.08 0.00125 108575
0.09125 0.08 0.00125 108576
0.09375 0.08 0.00125 108576
0.09625 0.08 0.00125 108577
0.09875 0.08 0.00125 108577
0.00125 0.08 0.00375 108579
0.00375 0.08 0.00375 108579
0.00625 0.08 0.00375 108579
0.00875 0.08 0.00375 108579
0.01125 0.08 0.00375 108579
0.01375 0.08 0.00375 108578
0.01625 0.08 0.00375 108578
0.01875 0.08 0.00375 108578
0.02125 0.08 0.00375 108577
0.02375 0.08 0.00375 108577
0.02625 0.08 0.00375 108576
0.02875 0.08 0.00375 108575
0.03125 0.08 0.00375 108575
0.03375 0.08 0.00375 108574
0.03625 0.08 0.00375 108574
0.03875 0.08 0.00375 108573
0.04125 0.08 0.00375 108573
0.04375 0.08 0.00375 108572
0.04625 0.08 0.00375 108572
0.04875 0.08 0.00375 108572
0.05125 0.08 0.00375 108571
0.05375 0.08 0.00375 108571
0.05625 0.08 0.00375 108571
0.05875 0.08 0.00375 108571
0.06125 0.08 0.00375 108571
0.06375 0.08 0.00375 108572
0.06625 0.08 0.00375 108572
0.06875 0.08 0.00375 108573
0.07125 0.08 0.00375 108573
0.07375 0.08 0.00375 108573
0.07625 0.08 0.00375 108574
0.07875 0.08 0.00375 108574
0.08125 0.08 0.00375 108574
0.08375 0.08 0.00375 108574
0.08625 0.08 0.00375 108575
0.08875 0.08 0.00375 108575
0.09125 0.08 0.00375 108576
0.09375 0.08 0.00375 108576
0.09625 0.08 0.00375 108576
0.09875 0.08 0.00375 108577
0.00125 0.08 0.00625 108579
0.00375 0.08 0.00625 108579
0.00625 0.08 0.00625 108579
0.00875 0.08 0.00625 108579
0.01125 0.08 0.00625 108578
0.01375 0.08 0.00625 108578
0.01625 0.08 0.00625 108578
0.01875 0.08 0.00625 108578
0.02125 0.08 0.00625 108577
0.02375 0.08 0.00625 108577
0.02625 0.08 0.00625 108576
0.02875 0.08 0.00625 108575
0.03125 0.08 0.00625 108575
0.03375 0.08 0.00625 108574
0.03625 0.08 0.00625 108574
0.03875 0.08 0.00625 108573
0.04125 0.08 0.00625 108573
0.04375 0.08 0.00625 108572
0.04625 0.08 0.00625 108572
0.04875 0.08 0.00625 108572
0.05125 0.08 0.00625 108571
0.05375 0.08 0.00625 108571
0.05625 0.08 0.00625 108571
0.05875 0.08 0.00625 108571
0.06125 0.08 0.00625 108571
0.06375 0.08 0.00625 108572
0.06625 0.08 0.00625 108572
0.06875 0.08 0.00625 108572
0.07125 0.08 0.00625 108573
0.07375 0.08 0.00625 108573
0.07625 0.08 0.00625 108573
0.07875 0.08 0.00625 108574
0.08125 0.08 0.00625 108574
0.08375 0.08 0.00625 108574
0.08625 0.08 0.00625 108575
0.08875 0.08 0.00625 108575
0.09125 0.08 0.00625 108575
0.09375 0.08 0.00625 108576
0.09625 0.08 0.00625 108576
0.09875 0.08 0.00625 108577
0.00125 0.08 0.00875 108579
0.00375 0.08 0.00875 108579
0.00625 0.08 0.00875 108579
0.00875 0.08 0.00875 108579
0.01125 0.08 0.00875 108578
0.01375 0.08 0.00875 108578
0.01625 0.08 0.00875 108578
0.01875 0.08 0.00875 108578
0.02125 0.08 0.00875 108577
0.02375 0.08 0.00875 108577
0.02625 0.08 0.00875 108576
0.02875 0.08 0.00875 108575
0.03125 0.08 0.00875 108575
0.03375 0.08 0.00875 108574
0.03625 0.08 0.00875 108574
0.03875 0.08 0.00875 108573
0.04125 0.08 0.00875 108573
0.04375 0.08 0.00875 108572
0.04625 0.08 0.00875 108572
0.04875 0.08 0.00875 108572
0.05125 0.08 0.00875 108571
0.05375 0.08 0.00875 108571
0.05625 0.08 0.00875 108571
0.05875 0.08 0.00875 108571
0.06125 0.08 0.00875 108571
0.06375 0.08 0.00875 108572
0.06625 0.08 0.00875 108572
0.06875 0.08 0.00875 108572
0.07125 0.08 0.00875 108573
0.07375 0.08 0.00875 108573
0.07625 0.08 0.00875 108573
0.07875 0.08 0.00875 108574
0.08125 0.08 0.00875 108574
0.08375 0.08 0.00875 108574
0.08625 0.08 0.00875 108574
0.08875 0.08 0.00875 108575
0.09125 0.08 0.00875 108575
0.09375 0.08 0.00875 108576
0.09625 0.08 0.00875 108576
0.09875 0.08 0.00875 108576
0.00125 0.08 0.01125 108579
0.00375 0.08 0.01125 108579
0.00625 0.08 0.01125 108579
0.00875 0.08 0.01125 108579
0.01125 0.08 0.01125 108578
0.01375 0.08 0.01125 108578
0.01625 0.08 0.01125 108578
0.01875 0.08 0.01125 108578
0.02125 0.08 0.01125 108577
0.02375 0.08 0.01125 108577
0.02625 0.08 0.01125 108576
0.02875 0.08 0.01125 108576
0.03125 0.08 0.01125 108575
0.03375 0.08 0.01125 108574
0.03625 0.08 0.01125 108574
0.03875 0.08 0.01125 108573
0.04125 0.08 0.01125 108573
0.04375 0.08 0.01125 108572
0.04625 0.08 0.01125 108572
0.04875 0.08 0.01125 108572
0.05125 0.08 0.01125 108571
0.05375 0.08 0.01125 108571
0.05625 0.08 0.01125 108571
0.05875 0.08 0.01125 108571
0.06125 0.08 0.01125 108571
0.06375 0.08 0.01125 108572
0.06625 0.08 0.01125 108572
0.06875 0.08 0.01125 108572
0.07125 0.08 0.01125 108573
0.07375 0.08 0.01125 108573
0.07625 0.08 0.01125 108573
0.07875 0.08 0.01125 108574
0.08125 0.08 0.01125 108574
0.08375 0.08 0.01125 108574
0.08625 0.08 0.01125 108575
0.08875 0.08 0.01125 108575
0.09125 0.08 0.01125 108575
0.09375 0.08 0.01125 108576
0.09625 0.08 0.01125 108576
0.09875 0.08 0.01125 108576
0.00125 0.08 0.01375 108579
0.00375 0.08 0.01375 108579
0.00625 0.08 0.01375 108579
0.00875 0.08 0.01375 108579
0.01125 0.08 0.01375 108578
0.01375 0.08 0.01375 108578
0.01625 0.08 0.01375 108578
0.01875 0.08 0.01375 108578
0.02125 0.08 0.01375 108577
0.02375 0.08 0.01375 108577
0.02625 0.08 0.01375 108576
0.02875 0.08 0.01375 108576
0.03125 0.08 0.01375 108575
0.03375 0.08 0.01375 108574
0.03625 0.08 0.01375 108574
0.03875 0.08 0.01375 108573
0.04125 0.08 0.01375 108573
0.04375 0.08 0.01375 108572
0.04625 0.08 0.01375 108572
0.04875 0.08 0.01375 108572
0.05125 0.08 0.01375 108572
0.05375 0.08 0.01375 108571
0.05625 0.08 0.01375 108571
0.05875 0.08 0.01375 108571
0.06125 0.08 0.01375 108571
0.06375 0.08 0.01375 108572
0.06625 0.08 0.01375 108572
0.06875 0.08 0.01375 108572
0.07125 0.08 0.01375 108573
0.07375 0.08 0.01375 108573
0.07625 0.08 0.01375 108574
0.07875 0.08 0.01375 108574
0.08125 0.08 0.01375 108574
0.08375 0.08 0.01375 108574
0.08625 0.08 0.01375 108575
0.08875 0.08 0.01375 108575
0.09125 0.08 0.01375 108575
0.09375 0.08 0.01375 108576
0.09625 0.08 0.01375 108576
0.09875 0.08 0.01375 108576
0.00125 0.08 0.01625 108579
0.00375 0.08 0.01625 108579
0.00625 0.08 0.01625 108579
0.00875 0.08 0.01625 108579
0.01125 0.08 0.01625 108578
0.01375 0.08 0.01625 108578
0.01625 0.08 0.01625 108578
0.01875 0.08 0.01625 108578
0.02125 0.08 0.01625 108577
0.02375 0.08 0.01625 108577
0.02625 0.08 0.01625 108576
0.02875 0.08 0.01625 108576
0.03125 0.08 0.01625 108575
0.03375 0.08 0.01625 108574
0.03625 0.08 0.01625 108574
0.03875 0.08 0.01625 108573
0.04125 0.08 0.01625 108573
0.04375 0.08 0.01625 108572
0.04625 0.08 0.01625 108572
0.04875 0.08 0.01625 108572
0.05125 0.08 0.01625 108572
0.05375 0.08 0.01625 108572
0.05625 0.08 0.01625 108572
0.05875 0.08 0.01625 108571
0.06125 0.08 0.01625 108572
0.06375 0.08 0.01625 108572
0.06625 0.08 0.01625 108572
0.06875 0.08 0.01625 108573
0.07125 0.08 0.01625 108573
0.07375 0.08 0.01625 108573
0.07625 0.08 0.01625 108574
0.07875 0.08 0.01625 108574
0.08125 0.08 0.01625 108574
0.08375 0.08 0.01625 108575
0.08625 0.08 0.01625 108575
0.08875 0.08 0.01625 108575
0.09125 0.08 0.01625 108576
0.09375 0.08 0.01625 108576
0.09625 0.08 0.01625 108576
0.09875 0.08 0.01625 108577
0.00125 0.08 0.01875 108579
0.00375 0.08 0.01875 108579
0.00625 0.08 0.01875 108579
0.00875 0.08 0.01875 108579
0.01125 0.08 0.01875 108579
0.01375 0.08 0.01875 108578
0.01625 0.08 0.01875 108578
0.01875 0.08 0.01875 108578
0.02125 0.08 0.01875 108577
0.02375 0.08 0.01875 108577
0.02625 0.08 0.01875 108576
0.02875 0.08 0.01875 108576
0.03125 0.08 0.01875 108575
0.03375 0.08 0.01875 108574
0.03625 0.08 0.01875 108574
0.03875 0.08 0.01875 108573
0.04125 0.08 0.01875 108573
0.04375 0.08 0.01875 108573
0.04625 0.08 0.01875 108572
0.04875 0.08 0.01875 108572
0.05125 0.08 0.01875 108572
0.05375 0.08 0.01875 108572
0.05625 0.08 0.01875 108572
0.05875 0.08 0.01875 108572
0.06125 0.08 0.01875 108572
0.06375 0.08 0.01875 108572
0.06625 0.08 0.01875 108572
0.06875 0.08 0.01875 108573
0.07125 0.08 0.01875 108573
0.07375 0.08 0.01875 108574
0.07625 0.08 0.01875 108574
0.07875 0.08 0.01875 108574
0.08125 0.08 0.01875 108575
0.08375 0.08 0.01875 108575
0.08625 0.08 0.01875 108575
0.08875 0.08 0.01875 108575
0.09125 0.08 0.01875 108576
0.09375 0.08 0.01875 108576
0.09625 0.08 0.01875 108577
0.09875 0.08 0.01875 108577
