# UMean.water  FACE_DATA 320
#  x  y  z  UMean.water_x  UMean.water_y  UMean.water_z  
0.00125 0.63 0.00125 0.000207104 -0.0566632 -0.000103382
0.00375 0.63 0.00125 -0.000239317 -0.048672 0.00013927
0.00625 0.63 0.00125 -0.000699235 -0.0444137 5.14441e-05
0.00875 0.63 0.00125 -0.000829834 -0.0389511 1.5927e-05
0.01125 0.63 0.00125 -0.000954248 -0.0347466 -2.76055e-06
0.01375 0.63 0.00125 -0.000951464 -0.0301295 -1.47822e-05
0.01625 0.63 0.00125 -0.00099891 -0.0253752 -8.5568e-06
0.01875 0.63 0.00125 -0.00100126 -0.0205536 3.17777e-06
0.02125 0.63 0.00125 -0.00103093 -0.0156061 2.55868e-05
0.02375 0.63 0.00125 -0.00103646 -0.0105193 6.31833e-05
0.02625 0.63 0.00125 -0.00103799 -0.00533853 0.000110702
0.02875 0.63 0.00125 -0.000955392 -0.000185769 0.00012954
0.03125 0.63 0.00125 -0.000788564 0.00481138 0.000123717
0.03375 0.63 0.00125 -0.000519363 0.00966822 0.000118047
0.03625 0.63 0.00125 -0.000163032 0.0143333 0.000120912
0.03875 0.63 0.00125 0.000295595 0.0187429 0.000125568
0.04125 0.63 0.00125 0.000808194 0.0227323 0.00012273
0.04375 0.63 0.00125 0.00130035 0.026066 0.000117506
0.04625 0.63 0.00125 0.00177369 0.0287167 0.000107346
0.04875 0.63 0.00125 0.00222299 0.0305962 9.20351e-05
0.05125 0.63 0.00125 0.00265968 0.0317039 7.6777e-05
0.05375 0.63 0.00125 0.00309308 0.0320924 6.91897e-05
0.05625 0.63 0.00125 0.00348928 0.0317023 6.35885e-05
0.05875 0.63 0.00125 0.00384425 0.0304912 6.25645e-05
0.06125 0.63 0.00125 0.00417043 0.0285804 5.59559e-05
0.06375 0.63 0.00125 0.00447111 0.026051 4.57149e-05
0.06625 0.63 0.00125 0.00471594 0.0230289 4.44994e-05
0.06875 0.63 0.00125 0.00484196 0.0196336 7.42963e-05
0.07125 0.63 0.00125 0.00478191 0.0160222 0.000125608
0.07375 0.63 0.00125 0.00455266 0.0124265 0.000170547
0.07625 0.63 0.00125 0.00416641 0.00885219 0.000182791
0.07875 0.63 0.00125 0.00377566 0.00497525 0.000166494
0.08125 0.63 0.00125 0.00335555 0.00103638 8.41737e-05
0.08375 0.63 0.00125 0.00292931 -0.00257936 -2.11696e-05
0.08625 0.63 0.00125 0.00244826 -0.00603455 -0.00012415
0.08875 0.63 0.00125 0.0020776 -0.00965983 -0.000165166
0.09125 0.63 0.00125 0.00158143 -0.0135165 -0.00021069
0.09375 0.63 0.00125 0.00113564 -0.0182402 -0.000230657
0.09625 0.63 0.00125 0.000528206 -0.0206055 -0.000292438
0.09875 0.63 0.00125 -6.77532e-06 -0.0279033 -0.000659198
0.00125 0.63 0.00375 -8.89914e-05 -0.0475321 -0.000257427
0.00375 0.63 0.00375 8.58411e-06 -0.0176155 0.000376825
0.00625 0.63 0.00375 -0.000311342 -0.0161632 0.000253721
0.00875 0.63 0.00375 -0.000511739 -0.0163607 8.30491e-05
0.01125 0.63 0.00375 -0.000647181 -0.0145184 9.5631e-06
0.01375 0.63 0.00375 -0.000731059 -0.013388 -4.98973e-05
0.01625 0.63 0.00375 -0.000863826 -0.0121463 -6.32448e-05
0.01875 0.63 0.00375 -0.000981019 -0.0108885 -4.79915e-05
0.02125 0.63 0.00375 -0.00111578 -0.00965037 -8.87958e-06
0.02375 0.63 0.00375 -0.0012357 -0.00834094 5.26576e-05
0.02625 0.63 0.00375 -0.00133043 -0.00687188 0.00012252
0.02875 0.63 0.00375 -0.00135526 -0.005171 0.000162967
0.03125 0.63 0.00375 -0.00131562 -0.00322749 0.000172935
0.03375 0.63 0.00375 -0.00119314 -0.0010584 0.000177108
0.03625 0.63 0.00375 -0.000975236 0.00127884 0.000184835
0.03875 0.63 0.00375 -0.000657539 0.00368373 0.000196614
0.04125 0.63 0.00375 -0.000264838 0.00601904 0.000205975
0.04375 0.63 0.00375 0.000168385 0.00810268 0.000213518
0.04625 0.63 0.00375 0.000621142 0.00981986 0.000220212
0.04875 0.63 0.00375 0.00107868 0.0110859 0.000223197
0.05125 0.63 0.00375 0.00153297 0.0118395 0.000227306
0.05375 0.63 0.00375 0.00199544 0.0120811 0.000228288
0.05625 0.63 0.00375 0.00245869 0.0118357 0.00021462
0.05875 0.63 0.00375 0.00291867 0.0111374 0.000198416
0.06125 0.63 0.00375 0.00336704 0.0100617 0.000182179
0.06375 0.63 0.00375 0.0037789 0.00878162 0.000160694
0.06625 0.63 0.00375 0.00410383 0.00751952 0.000137983
0.06875 0.63 0.00375 0.00432228 0.0064635 0.000133501
0.07125 0.63 0.00375 0.00441592 0.00569764 0.000141639
0.07375 0.63 0.00375 0.00440312 0.00517283 0.000148209
0.07625 0.63 0.00375 0.00428348 0.00477481 0.00013748
0.07875 0.63 0.00375 0.00410695 0.00433468 0.000109853
0.08125 0.63 0.00375 0.00383228 0.00387365 2.4601e-05
0.08375 0.63 0.00375 0.00347202 0.00347431 -7.7798e-05
0.08625 0.63 0.00375 0.00299528 0.00314743 -0.000181799
0.08875 0.63 0.00375 0.0025041 0.00304319 -0.000238326
0.09125 0.63 0.00375 0.00191533 0.00200217 -0.000267682
0.09375 0.63 0.00375 0.00133521 0.00183321 -0.000206664
0.09625 0.63 0.00375 0.000725553 0.0026751 -0.000263933
0.09875 0.63 0.00375 0.000354592 -0.0194798 -0.00094859
0.00125 0.63 0.00625 -0.00027886 -0.0442366 -0.000486193
0.00375 0.63 0.00625 -0.000266247 -0.0173246 0.000166654
0.00625 0.63 0.00625 -0.000411563 -0.017145 0.000184356
0.00875 0.63 0.00625 -0.000521079 -0.017908 7.42678e-05
0.01125 0.63 0.00625 -0.000610017 -0.0157501 -1.26664e-05
0.01375 0.63 0.00625 -0.000697952 -0.0143599 -7.92319e-05
0.01625 0.63 0.00625 -0.000831612 -0.0125859 -9.27432e-05
0.01875 0.63 0.00625 -0.000955909 -0.0106115 -7.3667e-05
0.02125 0.63 0.00625 -0.00108747 -0.00858611 -2.59647e-05
0.02375 0.63 0.00625 -0.00119931 -0.00650455 3.64094e-05
0.02625 0.63 0.00625 -0.00128212 -0.00436213 9.67314e-05
0.02875 0.63 0.00625 -0.00130232 -0.00211581 0.000127425
0.03125 0.63 0.00625 -0.00126401 0.000235381 0.000130083
0.03375 0.63 0.00625 -0.00115751 0.00265183 0.000126751
0.03625 0.63 0.00625 -0.000974432 0.00507673 0.000132975
0.03875 0.63 0.00625 -0.00071087 0.00742643 0.000151884
0.04125 0.63 0.00625 -0.000377442 0.00960241 0.000181602
0.04375 0.63 0.00625 8.19602e-06 0.0115049 0.00021509
0.04625 0.63 0.00625 0.000431144 0.0130618 0.000245738
0.04875 0.63 0.00625 0.000879168 0.0142223 0.000268697
0.05125 0.63 0.00625 0.00134554 0.0149293 0.000281723
0.05375 0.63 0.00625 0.00183304 0.0151722 0.000283085
0.05625 0.63 0.00625 0.00233532 0.0149834 0.000266637
0.05875 0.63 0.00625 0.00283748 0.014411 0.000229718
0.06125 0.63 0.00625 0.00332238 0.013515 0.000171144
0.06375 0.63 0.00625 0.00376818 0.012399 9.96442e-05
0.06625 0.63 0.00625 0.0041352 0.0111937 3.08777e-05
0.06875 0.63 0.00625 0.00440442 0.0100084 -8.8441e-06
0.07125 0.63 0.00625 0.00456049 0.00889539 -1.86014e-05
0.07375 0.63 0.00625 0.00461464 0.00781734 -9.70346e-06
0.07625 0.63 0.00625 0.00455862 0.0066914 -5.01916e-06
0.07875 0.63 0.00625 0.0044166 0.00548366 -1.60224e-05
0.08125 0.63 0.00625 0.00416354 0.00420484 -7.03098e-05
0.08375 0.63 0.00625 0.00382143 0.0028849 -0.000137154
0.08625 0.63 0.00625 0.00336545 0.00164067 -0.000204641
0.08875 0.63 0.00625 0.00285385 0.000779941 -0.000230898
0.09125 0.63 0.00625 0.00226082 -0.00092694 -0.000243516
0.09375 0.63 0.00625 0.00168154 -0.0013068 -0.000226655
0.09625 0.63 0.00625 0.00111245 9.01144e-05 -0.000368723
0.09875 0.63 0.00625 0.000572569 -0.019188 -0.00103688
0.00125 0.63 0.00875 -0.000373958 -0.0411472 -0.000120686
0.00375 0.63 0.00875 -0.000489753 -0.0188205 5.41447e-05
0.00625 0.63 0.00875 -0.000558089 -0.018891 6.21606e-05
0.00875 0.63 0.00875 -0.000597368 -0.0187385 2.9542e-05
0.01125 0.63 0.00875 -0.000656517 -0.0164076 -1.14364e-05
0.01375 0.63 0.00875 -0.000737895 -0.0149514 -4.09553e-05
0.01625 0.63 0.00875 -0.000861317 -0.0131221 -4.2779e-05
0.01875 0.63 0.00875 -0.000973766 -0.0110977 -1.83777e-05
0.02125 0.63 0.00875 -0.00108342 -0.00897875 2.9841e-05
0.02375 0.63 0.00875 -0.00116397 -0.00675278 9.22929e-05
0.02625 0.63 0.00875 -0.00121601 -0.00442678 0.000149481
0.02875 0.63 0.00875 -0.00121205 -0.00199549 0.000180706
0.03125 0.63 0.00875 -0.00115585 0.000521497 0.000183456
0.03375 0.63 0.00875 -0.00103855 0.00307388 0.000175267
0.03625 0.63 0.00875 -0.000857692 0.00558898 0.00017134
0.03875 0.63 0.00875 -0.000608893 0.00797592 0.000177997
0.04125 0.63 0.00875 -0.000298012 0.0101473 0.000194551
0.04375 0.63 0.00875 7.08232e-05 0.0120337 0.000215409
0.04625 0.63 0.00875 0.000484725 0.0135796 0.000234561
0.04875 0.63 0.00875 0.000938051 0.0147395 0.000249243
0.05125 0.63 0.00875 0.0014246 0.0154654 0.000260311
0.05375 0.63 0.00875 0.00193721 0.0157475 0.000258005
0.05625 0.63 0.00875 0.00246661 0.0156089 0.000232614
0.05875 0.63 0.00875 0.0029971 0.0150968 0.000185652
0.06125 0.63 0.00875 0.0035061 0.0142659 0.000120035
0.06375 0.63 0.00875 0.00396973 0.0131932 4.50423e-05
0.06625 0.63 0.00875 0.00435416 0.0119713 -2.39546e-05
0.06875 0.63 0.00875 0.00463873 0.0106897 -6.7657e-05
0.07125 0.63 0.00875 0.00481001 0.00941422 -8.41651e-05
0.07375 0.63 0.00875 0.00487734 0.00815097 -8.08663e-05
0.07625 0.63 0.00875 0.00483179 0.00688518 -7.98795e-05
0.07875 0.63 0.00875 0.00469375 0.00561448 -9.40263e-05
0.08125 0.63 0.00875 0.0044449 0.00434258 -0.000137612
0.08375 0.63 0.00875 0.00410827 0.00309707 -0.00019265
0.08625 0.63 0.00875 0.00365936 0.00194197 -0.000247742
0.08875 0.63 0.00875 0.00314629 0.00111003 -0.00028452
0.09125 0.63 0.00875 0.00256503 -0.000517174 -0.000305387
0.09375 0.63 0.00875 0.00200079 -0.00135571 -0.00031465
0.09625 0.63 0.00875 0.00141347 -0.000303611 -0.000374268
0.09875 0.63 0.00875 0.000698277 -0.0165426 -0.000540303
0.00125 0.63 0.01125 -0.000375073 -0.0411176 9.67072e-06
0.00375 0.63 0.01125 -0.000489374 -0.0188012 -9.79869e-05
0.00625 0.63 0.01125 -0.000566163 -0.018882 -0.000107029
0.00875 0.63 0.01125 -0.00060961 -0.0187964 -7.19184e-05
0.01125 0.63 0.01125 -0.000678469 -0.0164476 -6.27957e-05
0.01375 0.63 0.01125 -0.000760044 -0.0149648 -4.62562e-05
0.01625 0.63 0.01125 -0.000875343 -0.0130945 -2.78152e-05
0.01875 0.63 0.01125 -0.000971238 -0.0110248 6.30858e-06
0.02125 0.63 0.01125 -0.00105574 -0.00886256 5.70835e-05
0.02375 0.63 0.01125 -0.00110767 -0.00661447 0.000125695
0.02625 0.63 0.01125 -0.00113505 -0.00428604 0.000187688
0.02875 0.63 0.01125 -0.00111374 -0.0018797 0.000227078
0.03125 0.63 0.01125 -0.00104386 0.000595094 0.000239332
0.03375 0.63 0.01125 -0.000916193 0.00311401 0.000237962
0.03625 0.63 0.01125 -0.00073091 0.00559973 0.0002357
0.03875 0.63 0.01125 -0.000483777 0.00796118 0.000239368
0.04125 0.63 0.01125 -0.000175648 0.0101133 0.000249524
0.04375 0.63 0.01125 0.000194825 0.0119874 0.000264074
0.04625 0.63 0.01125 0.000613832 0.0135435 0.000276916
0.04875 0.63 0.01125 0.00107935 0.0147333 0.000288298
0.05125 0.63 0.01125 0.0015844 0.0155096 0.000298282
0.05375 0.63 0.01125 0.00211861 0.0158542 0.000296224
0.05625 0.63 0.01125 0.0026638 0.0157807 0.000271451
0.05875 0.63 0.01125 0.00320491 0.015327 0.000221385
0.06125 0.63 0.01125 0.00372126 0.0145486 0.000145569
0.06375 0.63 0.01125 0.00419148 0.0135151 5.70991e-05
0.06625 0.63 0.01125 0.00458624 0.0123075 -2.78257e-05
0.06875 0.63 0.01125 0.00488268 0.0110184 -9.17206e-05
0.07125 0.63 0.01125 0.00506254 0.00971695 -0.000128843
0.07375 0.63 0.01125 0.00513193 0.00841774 -0.000145665
0.07625 0.63 0.01125 0.00508226 0.00711811 -0.000158902
0.07875 0.63 0.01125 0.00493589 0.0058131 -0.000182147
0.08125 0.63 0.01125 0.00467959 0.00451647 -0.000222789
0.08375 0.63 0.01125 0.00434057 0.00325833 -0.000272581
0.08625 0.63 0.01125 0.00388548 0.00209353 -0.000317244
0.08875 0.63 0.01125 0.00335345 0.00125322 -0.000360151
0.09125 0.63 0.01125 0.00273495 -0.000411965 -0.000391662
0.09375 0.63 0.01125 0.00212182 -0.0013597 -0.000427714
0.09625 0.63 0.01125 0.00148637 -0.000341698 -0.000399966
0.09875 0.63 0.01125 0.000735731 -0.0164407 -0.000215873
0.00125 0.63 0.01375 -0.00027769 -0.044312 0.000386032
0.00375 0.63 0.01375 -0.000261309 -0.0173748 -0.000206305
0.00625 0.63 0.01375 -0.000429027 -0.0172746 -0.000215855
0.00875 0.63 0.01375 -0.000559117 -0.0181675 -0.000106712
0.01125 0.63 0.01375 -0.000681996 -0.0159218 -4.68159e-05
0.01375 0.63 0.01375 -0.000773282 -0.0144651 4.22441e-06
0.01625 0.63 0.01375 -0.000889302 -0.0125658 3.18292e-05
0.01875 0.63 0.01375 -0.000969188 -0.0104246 6.16831e-05
0.02125 0.63 0.01375 -0.00102651 -0.00820404 9.86827e-05
0.02375 0.63 0.01375 -0.00104763 -0.00596033 0.000160795
0.02625 0.63 0.01375 -0.00104911 -0.00371953 0.00021966
0.02875 0.63 0.01375 -0.00100649 -0.00145978 0.000255971
0.03125 0.63 0.01375 -0.000919972 0.00085391 0.000265474
0.03375 0.63 0.01375 -0.000779464 0.00321272 0.000257815
0.03625 0.63 0.01375 -0.000587169 0.00552412 0.000245123
0.03875 0.63 0.01375 -0.000337243 0.00770001 0.000234711
0.04125 0.63 0.01375 -2.46192e-05 0.009661 0.000222067
0.04375 0.63 0.01375 0.000354864 0.0113684 0.000207619
0.04625 0.63 0.01375 0.000790835 0.0128172 0.000188795
0.04875 0.63 0.01375 0.00127475 0.0139716 0.000170829
0.05125 0.63 0.01375 0.00179973 0.0147785 0.000161483
0.05375 0.63 0.01375 0.0023516 0.0152138 0.000156718
0.05625 0.63 0.01375 0.00290915 0.0152818 0.00014209
0.05875 0.63 0.01375 0.00345339 0.0150131 0.00010821
0.06125 0.63 0.01375 0.00396684 0.0144402 5.31495e-05
0.06375 0.63 0.01375 0.00443301 0.0136081 -1.38815e-05
0.06625 0.63 0.01375 0.0048234 0.0125759 -7.69774e-05
0.06875 0.63 0.01375 0.00511649 0.0114377 -0.000121883
0.07125 0.63 0.01375 0.00529038 0.010263 -0.000147551
0.07375 0.63 0.01375 0.00535002 0.00905479 -0.000160599
0.07625 0.63 0.01375 0.00528735 0.00780253 -0.000174694
0.07875 0.63 0.01375 0.00512827 0.00647605 -0.000202704
0.08125 0.63 0.01375 0.00486291 0.00506929 -0.000247292
0.08375 0.63 0.01375 0.0045177 0.00363859 -0.000296535
0.08625 0.63 0.01375 0.00403388 0.00230321 -0.000322026
0.08875 0.63 0.01375 0.00345268 0.00133609 -0.000346984
0.09125 0.63 0.01375 0.00273917 -0.000435999 -0.000362535
0.09375 0.63 0.01375 0.00201973 -0.00088891 -0.000406825
0.09625 0.63 0.01375 0.00132774 0.000587358 -0.000295025
0.09875 0.63 0.01375 0.000681883 -0.018629 0.000370182
0.00125 0.63 0.01625 -8.71922e-05 -0.047532 0.00017559
0.00375 0.63 0.01625 1.95907e-05 -0.0170289 -0.00040027
0.00625 0.63 0.01625 -0.000330575 -0.0157253 -0.000254708
0.00875 0.63 0.01625 -0.000563935 -0.0160077 -8.37872e-05
0.01125 0.63 0.01625 -0.000745503 -0.0140976 -2.86436e-05
0.01375 0.63 0.01625 -0.000840733 -0.0128 1.47815e-05
0.01625 0.63 0.01625 -0.000955794 -0.0112982 3.52655e-05
0.01875 0.63 0.01625 -0.00101741 -0.00969061 5.04168e-05
0.02125 0.63 0.01625 -0.00104815 -0.00805507 6.66266e-05
0.02375 0.63 0.01625 -0.00103074 -0.00644101 0.000109767
0.02625 0.63 0.01625 -0.0010074 -0.00489026 0.000140174
0.02875 0.63 0.01625 -0.000950767 -0.00330938 0.000154465
0.03125 0.63 0.01625 -0.000848606 -0.00160061 0.000149174
0.03375 0.63 0.01625 -0.000687867 0.000246539 0.000133291
0.03625 0.63 0.01625 -0.000473187 0.00211887 0.000118418
0.03875 0.63 0.01625 -0.000197049 0.00391085 0.000107108
0.04125 0.63 0.01625 0.000139835 0.00556954 8.80809e-05
0.04375 0.63 0.01625 0.000548977 0.00707323 6.57546e-05
0.04625 0.63 0.01625 0.00102521 0.00842461 4.34715e-05
0.04875 0.63 0.01625 0.00155257 0.00958692 2.42532e-05
0.05125 0.63 0.01625 0.0021209 0.0104594 1.32584e-05
0.05375 0.63 0.01625 0.00271227 0.0109936 4.42365e-06
0.05625 0.63 0.01625 0.0032915 0.0112191 -3.45349e-06
0.05875 0.63 0.01625 0.00383916 0.0111736 -1.82786e-05
0.06125 0.63 0.01625 0.00434256 0.0108793 -5.20037e-05
0.06375 0.63 0.01625 0.00478735 0.0103413 -9.84866e-05
0.06625 0.63 0.01625 0.00514547 0.00960749 -0.000145446
0.06875 0.63 0.01625 0.00539266 0.00881957 -0.000178139
0.07125 0.63 0.01625 0.00550806 0.00808738 -0.00019404
0.07375 0.63 0.01625 0.00550906 0.00742899 -0.00019349
0.07625 0.63 0.01625 0.00538657 0.00681426 -0.000188461
0.07875 0.63 0.01625 0.0051773 0.00617475 -0.000196684
0.08125 0.63 0.01625 0.00488011 0.00546138 -0.000215956
0.08375 0.63 0.01625 0.00453296 0.00469238 -0.000224956
0.08625 0.63 0.01625 0.00403621 0.00398399 -0.000198553
0.08875 0.63 0.01625 0.00342721 0.00350788 -0.00017513
0.09125 0.63 0.01625 0.00264259 0.00218999 -0.000153755
0.09375 0.63 0.01625 0.00185027 0.00179623 -0.000224456
0.09625 0.63 0.01625 0.00105536 0.00272523 -0.000178362
0.09875 0.63 0.01625 0.000547844 -0.0186054 0.000593556
0.00125 0.63 0.01875 0.000203721 -0.0568218 6.45495e-05
0.00375 0.63 0.01875 -0.000238042 -0.049038 -0.000133612
0.00625 0.63 0.01875 -0.000735426 -0.0450811 -2.93295e-05
0.00875 0.63 0.01875 -0.000922085 -0.0395931 -1.42985e-05
0.01125 0.63 0.01875 -0.001108 -0.0353005 -6.65356e-06
0.01375 0.63 0.01875 -0.00114153 -0.0306116 2.46944e-06
0.01625 0.63 0.01875 -0.00119888 -0.025663 3.94062e-07
0.01875 0.63 0.01875 -0.0011909 -0.0204462 4.89947e-06
0.02125 0.63 0.01875 -0.00115804 -0.0150262 2.18468e-06
0.02375 0.63 0.01875 -0.00106176 -0.00963855 2.81302e-05
0.02625 0.63 0.01875 -0.000956127 -0.0045785 6.27706e-05
0.02875 0.63 0.01875 -0.000775236 0.000307515 8.82361e-05
0.03125 0.63 0.01875 -0.000524369 0.00506135 9.03507e-05
0.03375 0.63 0.01875 -0.000191877 0.00959031 8.07847e-05
0.03625 0.63 0.01875 0.000205012 0.0139 6.38557e-05
0.03875 0.63 0.01875 0.000661616 0.0179627 4.86776e-05
0.04125 0.63 0.01875 0.00115042 0.0217043 3.14513e-05
0.04375 0.63 0.01875 0.00166961 0.0250017 6.15119e-06
0.04625 0.63 0.01875 0.00220913 0.0277629 -2.22925e-05
0.04875 0.63 0.01875 0.00277026 0.0299232 -4.98291e-05
0.05125 0.63 0.01875 0.00333019 0.0313956 -6.04276e-05
0.05375 0.63 0.01875 0.00386542 0.032107 -4.69855e-05
0.05625 0.63 0.01875 0.00437887 0.0320691 -2.43421e-05
0.05875 0.63 0.01875 0.00485505 0.0313001 -1.89734e-05
0.06125 0.63 0.01875 0.00527019 0.0298517 -2.83654e-05
0.06375 0.63 0.01875 0.00560202 0.027757 -4.92123e-05
0.06625 0.63 0.01875 0.00582358 0.025052 -7.04359e-05
0.06875 0.63 0.01875 0.00592536 0.0219182 -7.68466e-05
0.07125 0.63 0.01875 0.00588293 0.0184959 -7.67162e-05
0.07375 0.63 0.01875 0.00572716 0.0147667 -7.10517e-05
0.07625 0.63 0.01875 0.0054424 0.0107653 -6.03175e-05
0.07875 0.63 0.01875 0.00509945 0.00654958 -5.86985e-05
0.08125 0.63 0.01875 0.00471547 0.00212256 -6.65815e-05
0.08375 0.63 0.01875 0.00433986 -0.00241084 -7.17045e-05
0.08625 0.63 0.01875 0.00378459 -0.00665714 -3.01726e-05
0.08875 0.63 0.01875 0.0031686 -0.0105281 1.73614e-05
0.09125 0.63 0.01875 0.0023975 -0.0144642 6.91529e-05
0.09375 0.63 0.01875 0.00170399 -0.0186745 6.39552e-05
0.09625 0.63 0.01875 0.000785028 -0.0205967 0.000111948
0.09875 0.63 0.01875 1.31476e-05 -0.0270367 0.000595877
