# UMean.water  FACE_DATA 320
#  x  y  z  UMean.water_x  UMean.water_y  UMean.water_z  
0.00125 0.08 0.00125 0.00286118 -0.142319 0.000403605
0.00375 0.08 0.00125 0.00468665 -0.130782 0.00151771
0.00625 0.08 0.00125 0.00678089 -0.11321 0.00154814
0.00875 0.08 0.00125 0.00794934 -0.0962672 0.0015568
0.01125 0.08 0.00125 0.00934071 -0.076982 0.00134656
0.01375 0.08 0.00125 0.0107209 -0.0529871 0.00117075
0.01625 0.08 0.00125 0.0116828 -0.0254056 0.00082903
0.01875 0.08 0.00125 0.0124446 0.00316322 0.000389309
0.02125 0.08 0.00125 0.0135111 0.0315286 -5.57725e-06
0.02375 0.08 0.00125 0.0144268 0.0560415 -0.00038574
0.02625 0.08 0.00125 0.014995 0.0748782 -0.000704243
0.02875 0.08 0.00125 0.0153538 0.0879175 -0.000855065
0.03125 0.08 0.00125 0.0154769 0.0955861 -0.000917945
0.03375 0.08 0.00125 0.0152066 0.0993006 -0.00109365
0.03625 0.08 0.00125 0.0145704 0.0997594 -0.00126057
0.03875 0.08 0.00125 0.0139337 0.0978659 -0.00136758
0.04125 0.08 0.00125 0.0133174 0.0947984 -0.00137573
0.04375 0.08 0.00125 0.0126437 0.0927026 -0.00132426
0.04625 0.08 0.00125 0.0119228 0.0919248 -0.00124044
0.04875 0.08 0.00125 0.0113561 0.0913834 -0.00106956
0.05125 0.08 0.00125 0.0109594 0.0904223 -0.000828234
0.05375 0.08 0.00125 0.0105313 0.0896904 -0.000595761
0.05625 0.08 0.00125 0.00967098 0.090613 -0.000331629
0.05875 0.08 0.00125 0.00847534 0.0924413 -6.70803e-05
0.06125 0.08 0.00125 0.00717131 0.09305 0.000247639
0.06375 0.08 0.00125 0.00557004 0.0899555 0.000454395
0.06625 0.08 0.00125 0.00354968 0.0823655 0.000662729
0.06875 0.08 0.00125 0.00123812 0.0698584 0.00073989
0.07125 0.08 0.00125 -0.000838327 0.0519058 0.000544714
0.07375 0.08 0.00125 -0.0023063 0.0300591 0.000192124
0.07625 0.08 0.00125 -0.00333927 0.00714086 -0.000162614
0.07875 0.08 0.00125 -0.00407135 -0.0158957 -0.000481175
0.08125 0.08 0.00125 -0.00439872 -0.0391346 -0.000737136
0.08375 0.08 0.00125 -0.00364466 -0.0627005 -0.000807722
0.08625 0.08 0.00125 -0.00256826 -0.0857517 -0.000618409
0.08875 0.08 0.00125 -0.00212684 -0.108233 -0.000291969
0.09125 0.08 0.00125 -0.00176533 -0.130979 0.000239007
0.09375 0.08 0.00125 -0.00144002 -0.153251 0.000960795
0.09625 0.08 0.00125 -0.0012262 -0.172791 0.00197562
0.09875 0.08 0.00125 -0.00173127 -0.186268 0.00108872
0.00125 0.08 0.00375 0.00234037 -0.134133 0.00109136
0.00375 0.08 0.00375 0.00554282 -0.118282 0.00313183
0.00625 0.08 0.00375 0.00802733 -0.105238 0.00341625
0.00875 0.08 0.00375 0.0101366 -0.0921772 0.00325788
0.01125 0.08 0.00375 0.0120632 -0.0754493 0.00291338
0.01375 0.08 0.00375 0.0139696 -0.0536914 0.00253871
0.01625 0.08 0.00375 0.0151257 -0.0277998 0.0019333
0.01875 0.08 0.00375 0.0157852 -0.000502828 0.00116612
0.02125 0.08 0.00375 0.0167079 0.0266438 0.000262753
0.02375 0.08 0.00375 0.0174626 0.050601 -0.000572135
0.02625 0.08 0.00375 0.0177693 0.0695438 -0.00125124
0.02875 0.08 0.00375 0.0177792 0.0832027 -0.00162248
0.03125 0.08 0.00375 0.017635 0.0920203 -0.00183168
0.03375 0.08 0.00375 0.0171691 0.0969066 -0.00210545
0.03625 0.08 0.00375 0.0163058 0.098654 -0.00245932
0.03875 0.08 0.00375 0.0154092 0.0984335 -0.00271621
0.04125 0.08 0.00375 0.0145547 0.0971651 -0.00273987
0.04375 0.08 0.00375 0.0136226 0.0960748 -0.00252681
0.04625 0.08 0.00375 0.012569 0.0957892 -0.00213517
0.04875 0.08 0.00375 0.0116233 0.0956036 -0.00166575
0.05125 0.08 0.00375 0.0108101 0.0948985 -0.00124394
0.05375 0.08 0.00375 0.00992798 0.0942017 -0.000995385
0.05625 0.08 0.00375 0.00876105 0.0942828 -0.000789418
0.05875 0.08 0.00375 0.00740388 0.0944247 -0.000382766
0.06125 0.08 0.00375 0.0059575 0.0931649 0.000195559
0.06375 0.08 0.00375 0.00439593 0.0892563 0.000651754
0.06625 0.08 0.00375 0.00270881 0.0817047 0.000917634
0.06875 0.08 0.00375 0.000995964 0.0696608 0.000895639
0.07125 0.08 0.00375 -0.000491716 0.0526711 0.000458894
0.07375 0.08 0.00375 -0.00180102 0.0314629 -4.14557e-05
0.07625 0.08 0.00375 -0.00320915 0.00817851 -0.000487647
0.07875 0.08 0.00375 -0.00465918 -0.0153422 -0.00103828
0.08125 0.08 0.00375 -0.00574227 -0.0388691 -0.00158485
0.08375 0.08 0.00375 -0.00574695 -0.0626755 -0.00174588
0.08625 0.08 0.00375 -0.00528411 -0.0857528 -0.00145087
0.08875 0.08 0.00375 -0.00497908 -0.108185 -0.000585585
0.09125 0.08 0.00375 -0.00454207 -0.129958 0.000734003
0.09375 0.08 0.00375 -0.00352151 -0.14992 0.00233467
0.09625 0.08 0.00375 -0.00219194 -0.168279 0.00398578
0.09875 0.08 0.00375 -0.000683065 -0.18872 0.00314204
0.00125 0.08 0.00625 0.00200764 -0.126962 0.00075293
0.00375 0.08 0.00625 0.0052668 -0.11346 0.00235656
0.00625 0.08 0.00625 0.00844032 -0.103952 0.00295153
0.00875 0.08 0.00625 0.0113377 -0.0930213 0.0028985
0.01125 0.08 0.00625 0.0137348 -0.0774873 0.00280896
0.01375 0.08 0.00625 0.0157813 -0.057284 0.00267318
0.01625 0.08 0.00625 0.0171282 -0.0328832 0.00206934
0.01875 0.08 0.00625 0.0179177 -0.00630988 0.00118653
0.02125 0.08 0.00625 0.0187152 0.0201907 0.000173062
0.02375 0.08 0.00625 0.0192966 0.0444119 -0.000778923
0.02625 0.08 0.00625 0.0194332 0.064735 -0.00160972
0.02875 0.08 0.00625 0.019238 0.0802067 -0.00219587
0.03125 0.08 0.00625 0.0188945 0.0908142 -0.00260755
0.03375 0.08 0.00625 0.0183208 0.0974875 -0.00301804
0.03625 0.08 0.00625 0.0173936 0.10102 -0.00346999
0.03875 0.08 0.00625 0.0163238 0.102319 -0.00371994
0.04125 0.08 0.00625 0.0152048 0.102187 -0.00365049
0.04375 0.08 0.00625 0.0139781 0.101694 -0.003308
0.04625 0.08 0.00625 0.0126729 0.101634 -0.00278349
0.04875 0.08 0.00625 0.0114674 0.101674 -0.00218757
0.05125 0.08 0.00625 0.010452 0.101145 -0.0016801
0.05375 0.08 0.00625 0.00938778 0.100312 -0.00138614
0.05625 0.08 0.00625 0.00808768 0.0999435 -0.00113509
0.05875 0.08 0.00625 0.00663752 0.0992932 -0.000710303
0.06125 0.08 0.00625 0.00513522 0.0969705 -5.40734e-05
0.06375 0.08 0.00625 0.00355 0.091915 0.000543903
0.06625 0.08 0.00625 0.00187359 0.0832181 0.000850916
0.06875 0.08 0.00625 0.000239079 0.0701512 0.000623928
0.07125 0.08 0.00625 -0.00110941 0.0525128 -4.08017e-05
0.07375 0.08 0.00625 -0.00247407 0.0312179 -0.000554914
0.07625 0.08 0.00625 -0.00393457 0.00773805 -0.0010707
0.07875 0.08 0.00625 -0.00553402 -0.0165373 -0.0018958
0.08125 0.08 0.00625 -0.00697625 -0.0408355 -0.00282979
0.08375 0.08 0.00625 -0.00736961 -0.0652851 -0.00331577
0.08625 0.08 0.00625 -0.00722602 -0.0886398 -0.00314476
0.08875 0.08 0.00625 -0.00688226 -0.110655 -0.00219957
0.09125 0.08 0.00625 -0.00619876 -0.131191 -0.000540172
0.09375 0.08 0.00625 -0.00457369 -0.14929 0.00160695
0.09625 0.08 0.00625 -0.00259053 -0.165661 0.00379453
0.09875 0.08 0.00625 -0.000390266 -0.185303 0.00424321
0.00125 0.08 0.00875 0.00184162 -0.123351 0.00149482
0.00375 0.08 0.00875 0.00502398 -0.112095 0.00208687
0.00625 0.08 0.00875 0.00847518 -0.104015 0.00254394
0.00875 0.08 0.00875 0.0116967 -0.0934377 0.00252383
0.01125 0.08 0.00875 0.0144484 -0.0782968 0.00256077
0.01375 0.08 0.00875 0.0166311 -0.0592549 0.00249231
0.01625 0.08 0.00875 0.018207 -0.0366155 0.00202953
0.01875 0.08 0.00875 0.0192534 -0.0111173 0.0012077
0.02125 0.08 0.00875 0.0200776 0.0149939 0.000269197
0.02375 0.08 0.00875 0.0204931 0.039473 -0.000500583
0.02625 0.08 0.00875 0.0204896 0.0609267 -0.00121028
0.02875 0.08 0.00875 0.0202248 0.0780752 -0.00183121
0.03125 0.08 0.00875 0.0197751 0.090382 -0.00234381
0.03375 0.08 0.00875 0.019085 0.0985446 -0.00276156
0.03625 0.08 0.00875 0.0180135 0.103366 -0.0031671
0.03875 0.08 0.00875 0.0167171 0.105653 -0.00341621
0.04125 0.08 0.00875 0.0153351 0.106231 -0.00335074
0.04375 0.08 0.00875 0.0138751 0.10618 -0.00300366
0.04625 0.08 0.00875 0.0123598 0.106364 -0.00245946
0.04875 0.08 0.00875 0.0109497 0.106618 -0.00186661
0.05125 0.08 0.00875 0.00975848 0.106272 -0.00137756
0.05375 0.08 0.00875 0.00859088 0.105372 -0.00107491
0.05625 0.08 0.00875 0.00727067 0.104533 -0.000837034
0.05875 0.08 0.00875 0.0058134 0.103187 -0.000445149
0.06125 0.08 0.00875 0.00428037 0.100109 0.00017647
0.06375 0.08 0.00875 0.00260542 0.0941816 0.000683869
0.06625 0.08 0.00875 0.000781285 0.0842904 0.000710666
0.06875 0.08 0.00875 -0.000927937 0.0698487 5.90093e-05
0.07125 0.08 0.00875 -0.0022477 0.0511634 -0.000769798
0.07375 0.08 0.00875 -0.00360876 0.0298241 -0.0011895
0.07625 0.08 0.00875 -0.00487311 0.00671851 -0.00138707
0.07875 0.08 0.00875 -0.00617488 -0.0177793 -0.00190454
0.08125 0.08 0.00875 -0.00746202 -0.0430839 -0.00289539
0.08375 0.08 0.00875 -0.00827438 -0.0681016 -0.00376784
0.08625 0.08 0.00875 -0.00863094 -0.091752 -0.00379629
0.08875 0.08 0.00875 -0.00849888 -0.113662 -0.00300964
0.09125 0.08 0.00875 -0.00775614 -0.133925 -0.001493
0.09375 0.08 0.00875 -0.00567663 -0.151743 0.000711284
0.09625 0.08 0.00875 -0.00316026 -0.16711 0.00331839
0.09875 0.08 0.00875 -0.000493677 -0.184621 0.00549015
0.00125 0.08 0.01125 0.001868 -0.120908 0.00133439
0.00375 0.08 0.01125 0.00508124 -0.110665 0.0011231
0.00625 0.08 0.01125 0.00860323 -0.10277 0.00146367
0.00875 0.08 0.01125 0.0119359 -0.0921276 0.00147798
0.01125 0.08 0.01125 0.0148847 -0.0772404 0.00166525
0.01375 0.08 0.01125 0.0172203 -0.0590347 0.00165224
0.01625 0.08 0.01125 0.0191265 -0.0374402 0.0012581
0.01875 0.08 0.01125 0.0204725 -0.0129296 0.000510036
0.02125 0.08 0.01125 0.0212663 0.012535 -0.000216897
0.02375 0.08 0.01125 0.0215433 0.0367115 -0.000642506
0.02625 0.08 0.01125 0.0213846 0.0583052 -0.0010644
0.02875 0.08 0.01125 0.0209375 0.0760978 -0.0014974
0.03125 0.08 0.01125 0.0202661 0.089165 -0.00188369
0.03375 0.08 0.01125 0.019368 0.0977706 -0.00218677
0.03625 0.08 0.01125 0.0181145 0.102736 -0.00248358
0.03875 0.08 0.01125 0.0166169 0.105267 -0.00270374
0.04125 0.08 0.01125 0.0150592 0.106368 -0.00268389
0.04375 0.08 0.01125 0.013496 0.10687 -0.00237549
0.04625 0.08 0.01125 0.0118656 0.107362 -0.00184519
0.04875 0.08 0.01125 0.0102974 0.107757 -0.00131931
0.05125 0.08 0.01125 0.00897473 0.107516 -0.000985536
0.05375 0.08 0.01125 0.00773939 0.106496 -0.000814476
0.05625 0.08 0.01125 0.00642393 0.105147 -0.000644266
0.05875 0.08 0.01125 0.00503301 0.103259 -0.000303218
0.06125 0.08 0.01125 0.00349329 0.0997572 0.00027337
0.06375 0.08 0.01125 0.0017396 0.093406 0.000588756
0.06625 0.08 0.01125 -0.000202926 0.0830077 0.00024328
0.06875 0.08 0.01125 -0.00196755 0.0680034 -0.000826412
0.07125 0.08 0.01125 -0.00343559 0.04921 -0.00170604
0.07375 0.08 0.01125 -0.00498337 0.0284398 -0.00203031
0.07625 0.08 0.01125 -0.00614249 0.00551519 -0.00218217
0.07875 0.08 0.01125 -0.00718577 -0.0189621 -0.00250679
0.08125 0.08 0.01125 -0.00814003 -0.0446635 -0.00321063
0.08375 0.08 0.01125 -0.00901018 -0.0702652 -0.00404876
0.08625 0.08 0.01125 -0.00961856 -0.0946624 -0.00416895
0.08875 0.08 0.01125 -0.00983666 -0.116668 -0.00362742
0.09125 0.08 0.01125 -0.00921264 -0.136764 -0.002578
0.09375 0.08 0.01125 -0.00689617 -0.154815 -0.000684032
0.09625 0.08 0.01125 -0.00369897 -0.17063 0.00203336
0.09875 0.08 0.01125 -0.000726501 -0.186158 0.00575333
0.00125 0.08 0.01375 0.00211162 -0.11942 0.00185706
0.00375 0.08 0.01375 0.00545264 -0.108564 0.000656509
0.00625 0.08 0.01375 0.00895531 -0.100069 0.00077418
0.00875 0.08 0.01375 0.0122895 -0.0895326 0.00081254
0.01125 0.08 0.01375 0.0154424 -0.0750935 0.00117668
0.01375 0.08 0.01375 0.0179858 -0.0575639 0.00117698
0.01625 0.08 0.01375 0.0202986 -0.0363701 0.000883363
0.01875 0.08 0.01375 0.0218564 -0.012732 0.000306645
0.02125 0.08 0.01375 0.0226248 0.0118244 -0.000196722
0.02375 0.08 0.01375 0.0228235 0.0353182 -0.000371706
0.02625 0.08 0.01375 0.0224669 0.0565518 -0.000548227
0.02875 0.08 0.01375 0.021687 0.0741961 -0.000804791
0.03125 0.08 0.01375 0.020613 0.0870351 -0.001134
0.03375 0.08 0.01375 0.0193688 0.0952293 -0.00140889
0.03625 0.08 0.01375 0.0178888 0.0995444 -0.001574
0.03875 0.08 0.01375 0.0162353 0.101656 -0.00166126
0.04125 0.08 0.01375 0.0146027 0.102852 -0.00162013
0.04375 0.08 0.01375 0.0130041 0.103673 -0.00132686
0.04625 0.08 0.01375 0.0112577 0.104355 -0.00085097
0.04875 0.08 0.01375 0.0095131 0.104856 -0.000499171
0.05125 0.08 0.01375 0.00805255 0.104717 -0.000383806
0.05375 0.08 0.01375 0.00683173 0.103677 -0.000401717
0.05625 0.08 0.01375 0.00560586 0.101962 -0.000370074
0.05875 0.08 0.01375 0.00429048 0.0997358 -0.000100825
0.06125 0.08 0.01375 0.00272167 0.0962172 0.000358654
0.06375 0.08 0.01375 0.000933367 0.0901526 0.000442843
0.06625 0.08 0.01375 -0.000992592 0.0801156 -0.000207278
0.06875 0.08 0.01375 -0.00279039 0.0652884 -0.00145362
0.07125 0.08 0.01375 -0.00462023 0.0469266 -0.00220768
0.07375 0.08 0.01375 -0.00655897 0.0267399 -0.00242356
0.07625 0.08 0.01375 -0.00786761 0.0038299 -0.00246828
0.07875 0.08 0.01375 -0.00883418 -0.0210614 -0.00256715
0.08125 0.08 0.01375 -0.00966823 -0.0469096 -0.00293281
0.08375 0.08 0.01375 -0.0104751 -0.0728265 -0.00350198
0.08625 0.08 0.01375 -0.0110663 -0.0981523 -0.00360592
0.08875 0.08 0.01375 -0.0112947 -0.120832 -0.00327292
0.09125 0.08 0.01375 -0.0106693 -0.140893 -0.00280756
0.09375 0.08 0.01375 -0.00846566 -0.159139 -0.00143515
0.09625 0.08 0.01375 -0.00476485 -0.176139 0.00128555
0.09875 0.08 0.01375 -0.00141554 -0.189729 0.00646609
0.00125 0.08 0.01625 0.00264578 -0.122486 0.000982131
0.00375 0.08 0.01625 0.00622435 -0.110666 -0.000649567
0.00625 0.08 0.01625 0.00947131 -0.0999683 -0.000485692
0.00875 0.08 0.01625 0.0126854 -0.0885813 -0.000478834
0.01125 0.08 0.01625 0.0158748 -0.0740701 -1.33e-06
0.01375 0.08 0.01625 0.0185553 -0.0566118 0.000155113
0.01625 0.08 0.01625 0.0211579 -0.0352619 0.00010468
0.01875 0.08 0.01625 0.0227807 -0.0121417 -0.000137776
0.02125 0.08 0.01625 0.0235834 0.0113849 -0.000311211
0.02375 0.08 0.01625 0.0238325 0.0340894 -0.000257449
0.02625 0.08 0.01625 0.0233959 0.0551149 -0.000262192
0.02875 0.08 0.01625 0.0223559 0.0729005 -0.000404484
0.03125 0.08 0.01625 0.0210166 0.0856539 -0.000634875
0.03375 0.08 0.01625 0.0194917 0.0933642 -0.000844095
0.03625 0.08 0.01625 0.0177601 0.0968526 -0.000912513
0.03875 0.08 0.01625 0.0159833 0.0982531 -0.000930958
0.04125 0.08 0.01625 0.014354 0.0991102 -0.000920795
0.04375 0.08 0.01625 0.012689 0.0998574 -0.000750146
0.04625 0.08 0.01625 0.0107434 0.10062 -0.000454826
0.04875 0.08 0.01625 0.00876132 0.101133 -0.000277513
0.05125 0.08 0.01625 0.00718425 0.101099 -0.000259707
0.05375 0.08 0.01625 0.00601976 0.100161 -0.000300292
0.05625 0.08 0.01625 0.00498591 0.0983393 -0.000340605
0.05875 0.08 0.01625 0.00378974 0.096002 -0.000183585
0.06125 0.08 0.01625 0.00210194 0.092952 5.42819e-05
0.06375 0.08 0.01625 0.000135146 0.0875605 -5.08363e-05
0.06625 0.08 0.01625 -0.0019769 0.0779916 -0.000710361
0.06875 0.08 0.01625 -0.00400949 0.063148 -0.00170501
0.07125 0.08 0.01625 -0.00638595 0.0448516 -0.00212696
0.07375 0.08 0.01625 -0.00869378 0.0244269 -0.00214735
0.07625 0.08 0.01625 -0.0100882 0.000832984 -0.00210137
0.07875 0.08 0.01625 -0.0109426 -0.0246494 -0.00206782
0.08125 0.08 0.01625 -0.0116235 -0.0505297 -0.00231117
0.08375 0.08 0.01625 -0.012178 -0.0763172 -0.00282811
0.08625 0.08 0.01625 -0.0127205 -0.102603 -0.00302348
0.08875 0.08 0.01625 -0.0128586 -0.12678 -0.00298488
0.09125 0.08 0.01625 -0.0120861 -0.147771 -0.00290891
0.09375 0.08 0.01625 -0.0101143 -0.16703 -0.00209314
0.09625 0.08 0.01625 -0.00637122 -0.185437 -8.26235e-05
0.09875 0.08 0.01625 -0.00265509 -0.196328 0.00498089
0.00125 0.08 0.01875 0.00334426 -0.128254 0.000519837
0.00375 0.08 0.01875 0.00605722 -0.123661 -0.000281731
0.00625 0.08 0.01875 0.00970037 -0.112185 -0.000127163
0.00875 0.08 0.01875 0.0128367 -0.098402 -0.000370255
0.01125 0.08 0.01875 0.0161083 -0.0822087 -0.000133569
0.01375 0.08 0.01875 0.0187927 -0.0631309 -0.000139527
0.01625 0.08 0.01875 0.0212958 -0.0399525 -0.00010474
0.01875 0.08 0.01875 0.0227911 -0.0160594 -0.000105603
0.02125 0.08 0.01875 0.0237924 0.00801078 -0.000166538
0.02375 0.08 0.01875 0.024331 0.0312093 -0.00022145
0.02625 0.08 0.01875 0.0239052 0.0537072 -0.000218406
0.02875 0.08 0.01875 0.0226044 0.0733274 -0.000199499
0.03125 0.08 0.01875 0.0212875 0.0867852 -0.000272559
0.03375 0.08 0.01875 0.0197157 0.0943407 -0.000428968
0.03625 0.08 0.01875 0.0177209 0.0973989 -0.000479161
0.03875 0.08 0.01875 0.0157815 0.0983248 -0.000451579
0.04125 0.08 0.01875 0.0140889 0.0991348 -0.000386866
0.04375 0.08 0.01875 0.012435 0.100096 -0.000254715
0.04625 0.08 0.01875 0.0104485 0.101008 -0.00014062
0.04875 0.08 0.01875 0.00846323 0.10131 -7.89396e-05
0.05125 0.08 0.01875 0.00707287 0.10089 -9.36714e-05
0.05375 0.08 0.01875 0.00604067 0.099682 -0.000181284
0.05625 0.08 0.01875 0.00499692 0.0979386 -0.000309293
0.05875 0.08 0.01875 0.00366313 0.0956729 -0.000189831
0.06125 0.08 0.01875 0.00187032 0.0933452 2.35753e-05
0.06375 0.08 0.01875 -0.000142187 0.0885047 -1.46472e-06
0.06625 0.08 0.01875 -0.00237705 0.0788894 -0.000377489
0.06875 0.08 0.01875 -0.00462792 0.0632719 -0.000944109
0.07125 0.08 0.01875 -0.00759647 0.0437364 -0.00120872
0.07375 0.08 0.01875 -0.010515 0.0214984 -0.0011775
0.07625 0.08 0.01875 -0.0120992 -0.00370207 -0.000970229
0.07875 0.08 0.01875 -0.0128108 -0.0296845 -0.000867748
0.08125 0.08 0.01875 -0.0132751 -0.0559878 -0.000903496
0.08375 0.08 0.01875 -0.0137329 -0.0821978 -0.00109397
0.08625 0.08 0.01875 -0.0142635 -0.109377 -0.00105959
0.08875 0.08 0.01875 -0.0143339 -0.135292 -0.00115361
0.09125 0.08 0.01875 -0.0136661 -0.157857 -0.00143248
0.09375 0.08 0.01875 -0.0128356 -0.178738 -0.0011537
0.09625 0.08 0.01875 -0.00952037 -0.196853 0.000385637
0.09875 0.08 0.01875 -0.00517519 -0.197308 0.00340116
