# UMean.air  FACE_DATA 320
#  x  y  z  UMean.air_x  UMean.air_y  UMean.air_z  
0.00125 0.08 0.00125 0.0036056 0.0946645 0.00247764
0.00375 0.08 0.00125 0.00368194 0.106275 0.0043622
0.00625 0.08 0.00125 0.00315972 0.123678 0.00401538
0.00875 0.08 0.00125 0.00353379 0.140992 0.00373616
0.01125 0.08 0.00125 0.00395071 0.160315 0.0028126
0.01375 0.08 0.00125 0.00483049 0.182706 0.00142502
0.01625 0.08 0.00125 0.00619834 0.209015 0.000204064
0.01875 0.08 0.00125 0.00785141 0.237156 -0.000367849
0.02125 0.08 0.00125 0.0101831 0.264472 -0.000689091
0.02375 0.08 0.00125 0.0126461 0.287785 -0.001417
0.02625 0.08 0.00125 0.0151297 0.305688 -0.00253224
0.02875 0.08 0.00125 0.0175911 0.317993 -0.00395872
0.03125 0.08 0.00125 0.0195982 0.325295 -0.00529524
0.03375 0.08 0.00125 0.0205047 0.328456 -0.00636729
0.03625 0.08 0.00125 0.0205285 0.328414 -0.0072354
0.03875 0.08 0.00125 0.0200424 0.326336 -0.0078619
0.04125 0.08 0.00125 0.0186772 0.322984 -0.00768605
0.04375 0.08 0.00125 0.0166991 0.321129 -0.00698773
0.04625 0.08 0.00125 0.014545 0.320388 -0.00649397
0.04875 0.08 0.00125 0.0129328 0.320009 -0.00632748
0.05125 0.08 0.00125 0.0115842 0.31968 -0.00628104
0.05375 0.08 0.00125 0.00992956 0.319419 -0.00631206
0.05625 0.08 0.00125 0.00733808 0.320231 -0.00640163
0.05875 0.08 0.00125 0.00477708 0.322317 -0.00660546
0.06125 0.08 0.00125 0.00366749 0.323318 -0.00643062
0.06375 0.08 0.00125 0.0033208 0.320735 -0.00548718
0.06625 0.08 0.00125 0.00282604 0.314141 -0.00400696
0.06875 0.08 0.00125 0.00185286 0.302256 -0.00252837
0.07125 0.08 0.00125 0.000947843 0.284387 -0.00180762
0.07375 0.08 0.00125 0.000534358 0.263363 -0.00176611
0.07625 0.08 0.00125 0.000195539 0.240916 -0.00143289
0.07875 0.08 0.00125 -0.000294163 0.217098 -0.00086897
0.08125 0.08 0.00125 -0.000697708 0.193791 -0.000374932
0.08375 0.08 0.00125 -1.26339e-05 0.170811 0.000536071
0.08625 0.08 0.00125 0.000575961 0.147463 0.00180441
0.08875 0.08 0.00125 0.000100275 0.124505 0.0030473
0.09125 0.08 0.00125 -0.000328625 0.101001 0.00407681
0.09375 0.08 0.00125 -0.000778241 0.078197 0.00456802
0.09625 0.08 0.00125 -0.00394762 0.0588555 0.0060029
0.09875 0.08 0.00125 -0.00477112 0.0457541 0.0051552
0.00125 0.08 0.00375 0.0053828 0.102098 0.00228715
0.00375 0.08 0.00375 0.00563094 0.117877 0.00429192
0.00625 0.08 0.00375 0.00235486 0.131322 0.00501186
0.00875 0.08 0.00375 0.00353711 0.144969 0.00510847
0.01125 0.08 0.00375 0.00383283 0.161422 0.00459561
0.01375 0.08 0.00375 0.00436558 0.182053 0.00366218
0.01625 0.08 0.00375 0.00471473 0.20662 0.00253751
0.01875 0.08 0.00375 0.00575092 0.23368 0.00182123
0.02125 0.08 0.00375 0.00829083 0.260196 0.00107576
0.02375 0.08 0.00375 0.0116254 0.283477 -0.000219942
0.02625 0.08 0.00375 0.0149126 0.301873 -0.00205426
0.02875 0.08 0.00375 0.0178759 0.31514 -0.00411557
0.03125 0.08 0.00375 0.0204406 0.323308 -0.00604165
0.03375 0.08 0.00375 0.0218614 0.327606 -0.00768713
0.03625 0.08 0.00375 0.0219031 0.329054 -0.00908948
0.03875 0.08 0.00375 0.0211018 0.329043 -0.0100923
0.04125 0.08 0.00375 0.0193314 0.326736 -0.00989249
0.04375 0.08 0.00375 0.0173675 0.32581 -0.00912693
0.04625 0.08 0.00375 0.0152879 0.325521 -0.00850761
0.04875 0.08 0.00375 0.0134504 0.32551 -0.00813073
0.05125 0.08 0.00375 0.0120125 0.325103 -0.00793006
0.05375 0.08 0.00375 0.0102421 0.324739 -0.00796161
0.05625 0.08 0.00375 0.00785444 0.325311 -0.00797007
0.05875 0.08 0.00375 0.00546805 0.325939 -0.00770617
0.06125 0.08 0.00375 0.0038188 0.325492 -0.00690531
0.06375 0.08 0.00375 0.00305717 0.321845 -0.00527479
0.06625 0.08 0.00375 0.00329387 0.314672 -0.00341435
0.06875 0.08 0.00375 0.00426194 0.303611 -0.00184807
0.07125 0.08 0.00375 0.00541084 0.286356 -0.00124135
0.07375 0.08 0.00375 0.00632042 0.264887 -0.00130989
0.07625 0.08 0.00375 0.00630233 0.241625 -0.00131163
0.07875 0.08 0.00375 0.00531589 0.217776 -0.00104775
0.08125 0.08 0.00375 0.00371939 0.194033 -0.000711282
0.08375 0.08 0.00375 0.00299264 0.170294 0.000215938
0.08625 0.08 0.00375 0.00250196 0.147374 0.00166128
0.08875 0.08 0.00375 0.0012374 0.124233 0.0032359
0.09125 0.08 0.00375 8.2676e-05 0.101617 0.00461385
0.09375 0.08 0.00375 0.00015295 0.0815737 0.00555558
0.09625 0.08 0.00375 -0.00391136 0.0630295 0.00729141
0.09875 0.08 0.00375 -0.00472865 0.0430702 0.00737136
0.00125 0.08 0.00625 0.0040329 0.10856 -0.000136295
0.00375 0.08 0.00625 0.00538866 0.122417 0.00028874
0.00625 0.08 0.00625 0.00473586 0.133027 0.00218304
0.00875 0.08 0.00625 0.00627531 0.144042 0.00289276
0.01125 0.08 0.00625 0.0066437 0.158409 0.00368015
0.01375 0.08 0.00625 0.00670521 0.177759 0.00434168
0.01625 0.08 0.00625 0.00680366 0.201249 0.00440115
0.01875 0.08 0.00625 0.00769926 0.228096 0.00394051
0.02125 0.08 0.00625 0.00983596 0.254428 0.00304022
0.02375 0.08 0.00625 0.0125508 0.278038 0.00170553
0.02625 0.08 0.00625 0.0152795 0.297508 -1.36705e-05
0.02875 0.08 0.00625 0.0179345 0.312093 -0.00160722
0.03125 0.08 0.00625 0.0203137 0.322094 -0.00303991
0.03375 0.08 0.00625 0.0217395 0.328549 -0.00433655
0.03625 0.08 0.00625 0.0219678 0.331903 -0.00550615
0.03875 0.08 0.00625 0.0212976 0.33338 -0.00628847
0.04125 0.08 0.00625 0.0193904 0.332193 -0.00622952
0.04375 0.08 0.00625 0.0172959 0.33171 -0.0059729
0.04625 0.08 0.00625 0.0150544 0.331599 -0.0055648
0.04875 0.08 0.00625 0.0131409 0.331749 -0.00510849
0.05125 0.08 0.00625 0.0116883 0.331337 -0.00464964
0.05375 0.08 0.00625 0.00999914 0.330534 -0.00426381
0.05625 0.08 0.00625 0.00790432 0.330053 -0.00369706
0.05875 0.08 0.00625 0.00558809 0.329766 -0.00271207
0.06125 0.08 0.00625 0.00410503 0.329094 -0.00146046
0.06375 0.08 0.00625 0.00348552 0.325357 -0.000180975
0.06625 0.08 0.00625 0.00352214 0.316741 0.000822955
0.06875 0.08 0.00625 0.00423933 0.30446 0.00110757
0.07125 0.08 0.00625 0.00529968 0.28708 0.000876602
0.07375 0.08 0.00625 0.00595957 0.265361 0.000343452
0.07625 0.08 0.00625 0.00588979 0.2421 -0.000395222
0.07875 0.08 0.00625 0.00502705 0.217221 -0.00127439
0.08125 0.08 0.00625 0.00326264 0.192988 -0.00202715
0.08375 0.08 0.00625 0.00197812 0.168789 -0.00217593
0.08625 0.08 0.00625 0.000857467 0.145566 -0.00179918
0.08875 0.08 0.00625 -0.000587199 0.122139 -0.00124427
0.09125 0.08 0.00625 -0.00163577 0.101246 -8.53565e-05
0.09375 0.08 0.00625 -0.000903573 0.0826184 0.00160937
0.09625 0.08 0.00625 -0.00400569 0.0660712 0.00351182
0.09875 0.08 0.00625 -0.00407137 0.0468377 0.00495563
0.00125 0.08 0.00875 0.00325631 0.112777 0.00143317
0.00375 0.08 0.00875 0.0048571 0.123872 0.00167083
0.00625 0.08 0.00875 0.00557302 0.133476 0.00240002
0.00875 0.08 0.00875 0.00742748 0.144054 0.00250405
0.01125 0.08 0.00875 0.0080815 0.157289 0.00302494
0.01375 0.08 0.00875 0.00824322 0.175475 0.00353889
0.01625 0.08 0.00875 0.00847996 0.1978 0.00377348
0.01875 0.08 0.00875 0.00919812 0.223404 0.00348382
0.02125 0.08 0.00875 0.0107319 0.249232 0.00269571
0.02375 0.08 0.00875 0.0128603 0.273395 0.00160197
0.02625 0.08 0.00875 0.0152679 0.294548 0.000169246
0.02875 0.08 0.00875 0.0178079 0.310791 -0.00126796
0.03125 0.08 0.00875 0.0201268 0.32206 -0.00255282
0.03375 0.08 0.00875 0.0215658 0.329837 -0.00354943
0.03625 0.08 0.00875 0.0218567 0.334323 -0.00439134
0.03875 0.08 0.00875 0.0211497 0.336253 -0.00500578
0.04125 0.08 0.00875 0.0190656 0.336246 -0.00496595
0.04375 0.08 0.00875 0.0168775 0.336162 -0.00482262
0.04625 0.08 0.00875 0.0145529 0.336341 -0.00438349
0.04875 0.08 0.00875 0.0126027 0.336652 -0.00385306
0.05125 0.08 0.00875 0.0111452 0.336318 -0.00335428
0.05375 0.08 0.00875 0.0095582 0.335398 -0.00290576
0.05625 0.08 0.00875 0.00766633 0.334509 -0.00223784
0.05875 0.08 0.00875 0.0055361 0.333602 -0.0013388
0.06125 0.08 0.00875 0.00416276 0.331756 -0.000203715
0.06375 0.08 0.00875 0.00352005 0.325688 0.000761618
0.06625 0.08 0.00875 0.00321733 0.316061 0.00124506
0.06875 0.08 0.00875 0.00351108 0.302469 0.00094453
0.07125 0.08 0.00875 0.0044145 0.285652 0.000335298
0.07375 0.08 0.00875 0.00493148 0.264738 -0.000423122
0.07625 0.08 0.00875 0.00486143 0.242264 -0.00111572
0.07875 0.08 0.00875 0.00436598 0.217051 -0.00202208
0.08125 0.08 0.00875 0.00315057 0.191129 -0.00295886
0.08375 0.08 0.00875 0.00172486 0.165985 -0.00330977
0.08625 0.08 0.00875 -0.000158313 0.141948 -0.00302948
0.08875 0.08 0.00875 -0.00194184 0.119645 -0.00223389
0.09125 0.08 0.00875 -0.00311512 0.0989488 -0.000824519
0.09375 0.08 0.00875 -0.00191197 0.0813176 0.00138433
0.09625 0.08 0.00875 -0.00424002 0.0660438 0.00411327
0.09875 0.08 0.00875 -0.00389156 0.0482668 0.00595277
0.00125 0.08 0.01125 0.0031419 0.115649 0.00126196
0.00375 0.08 0.01125 0.00478717 0.125983 0.00100164
0.00625 0.08 0.01125 0.00558653 0.133504 0.0010727
0.00875 0.08 0.01125 0.00767498 0.144324 0.00075483
0.01125 0.08 0.01125 0.00870085 0.15895 0.00107019
0.01375 0.08 0.01125 0.0092316 0.17607 0.00138982
0.01625 0.08 0.01125 0.00983547 0.197931 0.00141747
0.01875 0.08 0.01125 0.0105459 0.221631 0.00119991
0.02125 0.08 0.01125 0.011715 0.247618 0.000844553
0.02375 0.08 0.01125 0.013477 0.271174 0.000539266
0.02625 0.08 0.01125 0.0156625 0.292563 -3.73734e-05
0.02875 0.08 0.01125 0.0179935 0.309358 -0.000735653
0.03125 0.08 0.01125 0.0201302 0.321589 -0.00148793
0.03375 0.08 0.01125 0.021455 0.329449 -0.00204964
0.03625 0.08 0.01125 0.0215923 0.333775 -0.00244956
0.03875 0.08 0.01125 0.020689 0.336049 -0.00276354
0.04125 0.08 0.01125 0.0184974 0.336491 -0.00274581
0.04375 0.08 0.01125 0.0162512 0.336971 -0.00265114
0.04625 0.08 0.01125 0.0140083 0.337431 -0.0022075
0.04875 0.08 0.01125 0.0121074 0.337851 -0.00175273
0.05125 0.08 0.01125 0.01062 0.337583 -0.00145231
0.05375 0.08 0.01125 0.00909266 0.336506 -0.00117784
0.05625 0.08 0.01125 0.00732209 0.335071 -0.000595178
0.05875 0.08 0.01125 0.00530226 0.333448 0.000272473
0.06125 0.08 0.01125 0.00372728 0.330832 0.00125002
0.06375 0.08 0.01125 0.00292684 0.32501 0.00167182
0.06625 0.08 0.01125 0.00245495 0.315225 0.00138893
0.06875 0.08 0.01125 0.00255093 0.300862 0.000357919
0.07125 0.08 0.01125 0.00321109 0.283205 -0.000650334
0.07375 0.08 0.01125 0.00328202 0.263485 -0.00153601
0.07625 0.08 0.01125 0.00314767 0.241004 -0.00216261
0.07875 0.08 0.01125 0.00299313 0.215702 -0.00298459
0.08125 0.08 0.01125 0.0025196 0.188897 -0.00383606
0.08375 0.08 0.01125 0.00139901 0.163139 -0.00439345
0.08625 0.08 0.01125 -0.000647189 0.13858 -0.00413921
0.08875 0.08 0.01125 -0.00281957 0.116228 -0.00342826
0.09125 0.08 0.01125 -0.00423642 0.0962679 -0.00226571
0.09375 0.08 0.01125 -0.00280689 0.0788155 5.9655e-05
0.09625 0.08 0.01125 -0.00443137 0.0633019 0.00306958
0.09875 0.08 0.01125 -0.00395128 0.0474839 0.00577742
0.00125 0.08 0.01375 0.00361508 0.116933 0.00212077
0.00375 0.08 0.01375 0.00526219 0.127782 0.00186167
0.00625 0.08 0.01375 0.00551458 0.136382 0.00135045
0.00875 0.08 0.01375 0.00792751 0.146974 0.000756751
0.01125 0.08 0.01375 0.00946868 0.160787 0.000988397
0.01375 0.08 0.01375 0.0103167 0.177782 0.000860797
0.01625 0.08 0.01375 0.0113155 0.199521 0.000462884
0.01875 0.08 0.01375 0.0121885 0.222065 0.000185
0.02125 0.08 0.01375 0.0133333 0.246004 6.47792e-05
0.02375 0.08 0.01375 0.0150219 0.269954 0.00014776
0.02625 0.08 0.01375 0.0168587 0.290414 -5.76707e-06
0.02875 0.08 0.01375 0.0187306 0.307375 -0.00033914
0.03125 0.08 0.01375 0.0203838 0.319752 -0.000673634
0.03375 0.08 0.01375 0.0214371 0.327226 -0.000893212
0.03625 0.08 0.01375 0.0213706 0.331308 -0.000849884
0.03875 0.08 0.01375 0.0202369 0.333243 -0.000772733
0.04125 0.08 0.01375 0.0179614 0.33333 -0.000683596
0.04375 0.08 0.01375 0.0156732 0.334143 -0.000499885
0.04625 0.08 0.01375 0.0134184 0.334666 -5.78429e-05
0.04875 0.08 0.01375 0.01134 0.335101 0.000250689
0.05125 0.08 0.01375 0.00972266 0.334756 0.000254562
0.05375 0.08 0.01375 0.0082952 0.333596 0.000229883
0.05625 0.08 0.01375 0.00671499 0.331963 0.000565302
0.05875 0.08 0.01375 0.0047341 0.329884 0.00133267
0.06125 0.08 0.01375 0.00289749 0.326811 0.00212966
0.06375 0.08 0.01375 0.00181059 0.321224 0.00209447
0.06625 0.08 0.01375 0.00128707 0.311893 0.00122453
0.06875 0.08 0.01375 0.0014496 0.298399 -0.000244498
0.07125 0.08 0.01375 0.00173405 0.28077 -0.0013984
0.07375 0.08 0.01375 0.00129744 0.260892 -0.00207709
0.07625 0.08 0.01375 0.00103443 0.23782 -0.00228005
0.07875 0.08 0.01375 0.00101723 0.212447 -0.00257338
0.08125 0.08 0.01375 0.000915209 0.186644 -0.00315449
0.08375 0.08 0.01375 6.01604e-05 0.160616 -0.00368131
0.08625 0.08 0.01375 -0.00192987 0.13479 -0.00353072
0.08875 0.08 0.01375 -0.00403673 0.112083 -0.00275723
0.09125 0.08 0.01375 -0.00521266 0.0923333 -0.00191296
0.09375 0.08 0.01375 -0.00407295 0.074501 9.76225e-05
0.09625 0.08 0.01375 -0.00550507 0.0579089 0.00315028
0.09875 0.08 0.01375 -0.00460462 0.0449168 0.00633985
0.00125 0.08 0.01625 0.00540477 0.114986 -0.000600315
0.00375 0.08 0.01625 0.00688491 0.126536 -0.00148528
0.00625 0.08 0.01625 0.0050631 0.137101 -0.00185299
0.00875 0.08 0.01625 0.00777873 0.148658 -0.0017599
0.01125 0.08 0.01625 0.00988961 0.162445 -0.000787692
0.01375 0.08 0.01625 0.0109291 0.178928 -0.000360885
0.01625 0.08 0.01625 0.0123247 0.200564 -9.50765e-05
0.01875 0.08 0.01625 0.0133297 0.223284 0.000327583
0.02125 0.08 0.01625 0.0146183 0.245846 0.00112954
0.02375 0.08 0.01625 0.0162846 0.268342 0.00215208
0.02625 0.08 0.01625 0.0179849 0.288043 0.00283806
0.02875 0.08 0.01625 0.0195483 0.305325 0.0029509
0.03125 0.08 0.01625 0.0209653 0.317723 0.00322088
0.03375 0.08 0.01625 0.0218578 0.325358 0.00363571
0.03625 0.08 0.01625 0.0216728 0.328874 0.0042541
0.03875 0.08 0.01625 0.0203666 0.329832 0.00506975
0.04125 0.08 0.01625 0.0181847 0.329245 0.00556923
0.04375 0.08 0.01625 0.0156203 0.330199 0.00569189
0.04625 0.08 0.01625 0.0129668 0.330745 0.00557735
0.04875 0.08 0.01625 0.0104545 0.331257 0.00537046
0.05125 0.08 0.01625 0.00855406 0.331229 0.00502591
0.05375 0.08 0.01625 0.00727559 0.330363 0.00481938
0.05625 0.08 0.01625 0.0060296 0.328694 0.00501681
0.05875 0.08 0.01625 0.00411045 0.326407 0.00564279
0.06125 0.08 0.01625 0.0019215 0.323484 0.00598569
0.06375 0.08 0.01625 0.000411686 0.318163 0.00515916
0.06625 0.08 0.01625 -0.000292735 0.308724 0.00356959
0.06875 0.08 0.01625 -0.000296434 0.294665 0.00145441
0.07125 0.08 0.01625 -0.000397507 0.277558 -4.26729e-05
0.07375 0.08 0.01625 -0.00109637 0.258135 -0.000550719
0.07625 0.08 0.01625 -0.00118999 0.235518 -0.000635996
0.07875 0.08 0.01625 -0.00106299 0.209952 -0.00105476
0.08125 0.08 0.01625 -0.00120124 0.183772 -0.00217421
0.08375 0.08 0.01625 -0.0016916 0.157877 -0.00373947
0.08625 0.08 0.01625 -0.00321291 0.13131 -0.00504825
0.08875 0.08 0.01625 -0.00512418 0.106938 -0.00560879
0.09125 0.08 0.01625 -0.00612093 0.0860886 -0.00576307
0.09375 0.08 0.01625 -0.00541557 0.0676374 -0.00488037
0.09625 0.08 0.01625 -0.00758262 0.0496011 -0.00289106
0.09875 0.08 0.01625 -0.00632366 0.0384746 0.00109157
0.00125 0.08 0.01875 0.00451488 0.109401 -0.00167547
0.00375 0.08 0.01875 0.0069468 0.114046 -0.00266394
0.00625 0.08 0.01875 0.00796637 0.124706 -0.00263365
0.00875 0.08 0.01875 0.0103494 0.138932 -0.00238157
0.01125 0.08 0.01875 0.0131146 0.155173 -0.0014338
0.01375 0.08 0.01875 0.0146793 0.173333 -0.000850731
0.01625 0.08 0.01875 0.0163981 0.195781 -0.000196304
0.01875 0.08 0.01875 0.0179243 0.219934 0.000444627
0.02125 0.08 0.01875 0.0194351 0.242842 0.00131292
0.02375 0.08 0.01875 0.0207715 0.265378 0.00226203
0.02625 0.08 0.01875 0.0215415 0.285874 0.00312653
0.02875 0.08 0.01875 0.0221729 0.304434 0.0034884
0.03125 0.08 0.01875 0.0230282 0.31778 0.00384794
0.03375 0.08 0.01875 0.0228948 0.325314 0.00423226
0.03625 0.08 0.01875 0.0214967 0.328216 0.00474397
0.03875 0.08 0.01875 0.0195168 0.328522 0.0055122
0.04125 0.08 0.01875 0.0174002 0.32797 0.00607929
0.04375 0.08 0.01875 0.0151424 0.32865 0.00618201
0.04625 0.08 0.01875 0.0127883 0.32979 0.0059086
0.04875 0.08 0.01875 0.01046 0.330149 0.00549844
0.05125 0.08 0.01875 0.00880563 0.330013 0.00511231
0.05375 0.08 0.01875 0.00730556 0.328954 0.00490047
0.05625 0.08 0.01875 0.00528288 0.327003 0.00491336
0.05875 0.08 0.01875 0.00282611 0.32484 0.005275
0.06125 0.08 0.01875 0.000221883 0.322459 0.00543049
0.06375 0.08 0.01875 -0.00146681 0.317862 0.00484848
0.06625 0.08 0.01875 -0.00233828 0.308187 0.00368297
0.06875 0.08 0.01875 -0.00273297 0.293942 0.00206295
0.07125 0.08 0.01875 -0.00429458 0.275316 0.000794529
0.07375 0.08 0.01875 -0.00708826 0.253869 0.000412404
0.07625 0.08 0.01875 -0.00831762 0.230406 0.000399453
0.07875 0.08 0.01875 -0.00844533 0.204622 5.22068e-05
0.08125 0.08 0.01875 -0.00822233 0.178949 -0.000875452
0.08375 0.08 0.01875 -0.00794747 0.15262 -0.00213854
0.08625 0.08 0.01875 -0.00860156 0.125597 -0.00344464
0.08875 0.08 0.01875 -0.0102385 0.099478 -0.00448554
0.09125 0.08 0.01875 -0.0109725 0.0764445 -0.00532312
0.09375 0.08 0.01875 -0.0121735 0.0557006 -0.00525833
0.09625 0.08 0.01875 -0.0127362 0.0381301 -0.00406054
0.09875 0.08 0.01875 -0.00806645 0.0359241 -0.000841381
