# UMean.air  FACE_DATA 320
#  x  y  z  UMean.air_x  UMean.air_y  UMean.air_z  
0.00125 0.63 0.00125 0.000168447 0.167349 -0.000233946
0.00375 0.63 0.00125 -0.00115679 0.175407 0.00159323
0.00625 0.63 0.00125 -0.00211381 0.179737 0.000797541
0.00875 0.63 0.00125 -0.00202543 0.185177 0.000580343
0.01125 0.63 0.00125 -0.00213223 0.189361 0.000623724
0.01375 0.63 0.00125 -0.00218829 0.193928 0.000586972
0.01625 0.63 0.00125 -0.00238544 0.198633 0.000612415
0.01875 0.63 0.00125 -0.00253701 0.203426 0.000641778
0.02125 0.63 0.00125 -0.00273104 0.208351 0.000650443
0.02375 0.63 0.00125 -0.00287954 0.213436 0.000648323
0.02625 0.63 0.00125 -0.00295527 0.218629 0.000635252
0.02875 0.63 0.00125 -0.00286181 0.223789 0.000568874
0.03125 0.63 0.00125 -0.00265753 0.228796 0.000523206
0.03375 0.63 0.00125 -0.00235068 0.233672 0.0004642
0.03625 0.63 0.00125 -0.00191166 0.238365 0.000395732
0.03875 0.63 0.00125 -0.00124684 0.242784 0.000307044
0.04125 0.63 0.00125 -0.000445902 0.246736 0.000235284
0.04375 0.63 0.00125 0.000359572 0.250029 0.00017731
0.04625 0.63 0.00125 0.0011496 0.25264 0.000103666
0.04875 0.63 0.00125 0.0019105 0.254495 5.66208e-05
0.05125 0.63 0.00125 0.00264468 0.255593 2.07904e-05
0.05375 0.63 0.00125 0.00336418 0.25596 -1.04227e-05
0.05625 0.63 0.00125 0.00403919 0.255547 -2.72513e-05
0.05875 0.63 0.00125 0.0046624 0.254337 -3.62096e-05
0.06125 0.63 0.00125 0.00526487 0.252432 -7.10321e-05
0.06375 0.63 0.00125 0.00587227 0.249914 -0.000117238
0.06625 0.63 0.00125 0.00643845 0.246887 -0.000118872
0.06875 0.63 0.00125 0.00681851 0.243456 -7.30339e-05
0.07125 0.63 0.00125 0.00683397 0.239801 2.64896e-05
0.07375 0.63 0.00125 0.00655195 0.236153 3.65865e-05
0.07625 0.63 0.00125 0.00612305 0.232539 1.45541e-05
0.07875 0.63 0.00125 0.00571642 0.228681 2.4823e-05
0.08125 0.63 0.00125 0.00520119 0.224741 -2.53843e-05
0.08375 0.63 0.00125 0.00463374 0.221086 -0.000175436
0.08625 0.63 0.00125 0.00408041 0.217616 -0.000344707
0.08875 0.63 0.00125 0.00379481 0.214011 -0.00031735
0.09125 0.63 0.00125 0.00324912 0.21017 -0.000376904
0.09375 0.63 0.00125 0.00292361 0.205491 -0.000249139
0.09625 0.63 0.00125 0.00207428 0.203018 0.000232402
0.09875 0.63 0.00125 0.000446071 0.195612 -0.001202
0.00125 0.63 0.00375 0.00158326 0.176469 -0.00125267
0.00375 0.63 0.00375 0.000869729 0.2051 0.00105165
0.00625 0.63 0.00375 -0.00118534 0.207133 0.00067713
0.00875 0.63 0.00375 -0.000741153 0.207205 7.36835e-05
0.01125 0.63 0.00375 -0.000951021 0.209025 0.000271365
0.01375 0.63 0.00375 -0.000973974 0.210207 0.000160792
0.01625 0.63 0.00375 -0.00107027 0.211485 0.000166367
0.01875 0.63 0.00375 -0.00116644 0.212788 0.00022266
0.02125 0.63 0.00375 -0.00132519 0.214083 0.000268898
0.02375 0.63 0.00375 -0.00153027 0.21546 0.000327758
0.02625 0.63 0.00375 -0.00175652 0.217008 0.00039551
0.02875 0.63 0.00375 -0.0019239 0.218788 0.000426544
0.03125 0.63 0.00375 -0.00202379 0.22081 0.000489147
0.03375 0.63 0.00375 -0.00201543 0.223057 0.000535825
0.03625 0.63 0.00375 -0.00185787 0.225474 0.000589676
0.03875 0.63 0.00375 -0.00152431 0.227947 0.00061699
0.04125 0.63 0.00375 -0.00103914 0.23033 0.000653982
0.04375 0.63 0.00375 -0.000442037 0.232441 0.000673823
0.04625 0.63 0.00375 0.000213213 0.23417 0.000650341
0.04875 0.63 0.00375 0.000894171 0.235441 0.000631696
0.05125 0.63 0.00375 0.00157013 0.236198 0.00061296
0.05375 0.63 0.00375 0.00223539 0.236446 0.000574714
0.05625 0.63 0.00375 0.00288603 0.236203 0.000527182
0.05875 0.63 0.00375 0.00352712 0.235499 0.000492366
0.06125 0.63 0.00375 0.00412579 0.234405 0.000400179
0.06375 0.63 0.00375 0.00460658 0.233073 0.000249012
0.06625 0.63 0.00375 0.00489042 0.231725 0.00011324
0.06875 0.63 0.00375 0.00498389 0.230568 1.75718e-05
0.07125 0.63 0.00375 0.00491819 0.229695 -2.06287e-05
0.07375 0.63 0.00375 0.00477903 0.229066 -0.000109301
0.07625 0.63 0.00375 0.00458807 0.228575 -0.000173396
0.07875 0.63 0.00375 0.00438581 0.228055 -0.000182655
0.08125 0.63 0.00375 0.00408621 0.227505 -0.000275328
0.08375 0.63 0.00375 0.00368414 0.227015 -0.00046754
0.08625 0.63 0.00375 0.00317541 0.226606 -0.000652729
0.08875 0.63 0.00375 0.00275084 0.2264 -0.00059522
0.09125 0.63 0.00375 0.00204545 0.225339 -0.000779233
0.09375 0.63 0.00375 0.00164313 0.225047 -0.000323584
0.09625 0.63 0.00375 0.000423572 0.225383 4.34226e-05
0.09875 0.63 0.00375 -0.000248591 0.204146 -0.0023525
0.00125 0.63 0.00625 0.000416578 0.179876 -0.00156013
0.00375 0.63 0.00625 -0.000115595 0.20604 -0.000495495
0.00625 0.63 0.00625 -0.00100603 0.206608 0.000127509
0.00875 0.63 0.00625 -0.000840945 0.206008 -0.000263339
0.01125 0.63 0.00625 -0.00126341 0.208101 -0.0001783
0.01375 0.63 0.00625 -0.00143537 0.209504 -0.000310077
0.01625 0.63 0.00625 -0.0016035 0.211256 -0.000377222
0.01875 0.63 0.00625 -0.00178024 0.213208 -0.000398839
0.02125 0.63 0.00625 -0.00193562 0.215221 -0.000398839
0.02375 0.63 0.00625 -0.00207155 0.217298 -0.000373637
0.02625 0.63 0.00625 -0.00219752 0.219447 -0.000336126
0.02875 0.63 0.00625 -0.00226819 0.221707 -0.000298222
0.03125 0.63 0.00625 -0.00227871 0.224076 -0.000249042
0.03375 0.63 0.00625 -0.00220363 0.226517 -0.000180264
0.03625 0.63 0.00625 -0.00201857 0.228976 -6.47976e-05
0.03875 0.63 0.00625 -0.00169563 0.231361 7.37999e-05
0.04125 0.63 0.00625 -0.00124341 0.233568 0.000216291
0.04375 0.63 0.00625 -0.000692603 0.235492 0.000315661
0.04625 0.63 0.00625 -7.33535e-05 0.237063 0.000378257
0.04875 0.63 0.00625 0.000593447 0.238234 0.000399723
0.05125 0.63 0.00625 0.00129317 0.238953 0.000392986
0.05375 0.63 0.00625 0.00201797 0.239212 0.000360711
0.05625 0.63 0.00625 0.002745 0.239032 0.000303405
0.05875 0.63 0.00625 0.00344237 0.238459 0.000237416
0.06125 0.63 0.00625 0.00407824 0.237549 0.000116411
0.06375 0.63 0.00625 0.00462372 0.2364 -5.89354e-05
0.06625 0.63 0.00625 0.00502894 0.235142 -0.000246627
0.06875 0.63 0.00625 0.0052837 0.233898 -0.000383439
0.07125 0.63 0.00625 0.00540249 0.232728 -0.000449094
0.07375 0.63 0.00625 0.00544208 0.231601 -0.000431335
0.07625 0.63 0.00625 0.00539639 0.230437 -0.000360265
0.07875 0.63 0.00625 0.00527912 0.229199 -0.00030026
0.08125 0.63 0.00625 0.00503253 0.227894 -0.000317445
0.08375 0.63 0.00625 0.00465057 0.226559 -0.000365615
0.08625 0.63 0.00625 0.00413492 0.225304 -0.000392779
0.08875 0.63 0.00625 0.00360554 0.224407 -0.000320564
0.09125 0.63 0.00625 0.00272308 0.222736 -0.000441358
0.09375 0.63 0.00625 0.0021716 0.222328 -0.000133609
0.09625 0.63 0.00625 0.00157448 0.223394 -0.000426629
0.09875 0.63 0.00625 0.000660049 0.204609 -0.0021101
0.00125 0.63 0.00875 9.6025e-05 0.182929 -0.000327777
0.00375 0.63 0.00875 -0.000833662 0.20473 0.000187194
0.00625 0.63 0.00875 -0.00148156 0.20495 0.000368987
0.00875 0.63 0.00875 -0.0011074 0.205161 0.000297442
0.01125 0.63 0.00875 -0.00143835 0.207444 0.000211032
0.01375 0.63 0.00875 -0.00153353 0.208927 0.000129591
0.01625 0.63 0.00875 -0.00168054 0.21075 5.51972e-05
0.01875 0.63 0.00875 -0.00185516 0.21277 -4.79363e-06
0.02125 0.63 0.00875 -0.00200945 0.214891 -4.45334e-05
0.02375 0.63 0.00875 -0.00213645 0.217124 -6.69979e-05
0.02625 0.63 0.00875 -0.00224198 0.219464 -9.02877e-05
0.02875 0.63 0.00875 -0.00228645 0.221913 -0.00012073
0.03125 0.63 0.00875 -0.00226371 0.224448 -0.000160388
0.03375 0.63 0.00875 -0.00214914 0.22702 -0.000191436
0.03625 0.63 0.00875 -0.00192921 0.229556 -0.000194191
0.03875 0.63 0.00875 -0.00159026 0.231965 -0.00016266
0.04125 0.63 0.00875 -0.00114791 0.234157 -0.000112752
0.04375 0.63 0.00875 -0.000615746 0.236059 -6.35794e-05
0.04625 0.63 0.00875 -1.19903e-05 0.237616 -3.83439e-05
0.04875 0.63 0.00875 0.000651661 0.238787 -3.52893e-05
0.05125 0.63 0.00875 0.00136162 0.239528 -4.54331e-05
0.05375 0.63 0.00875 0.00210048 0.239826 -7.92253e-05
0.05625 0.63 0.00875 0.00284564 0.239701 -0.000142176
0.05875 0.63 0.00875 0.0035704 0.239193 -0.000234013
0.06125 0.63 0.00875 0.00424221 0.238353 -0.000348236
0.06375 0.63 0.00875 0.00482862 0.237253 -0.000461778
0.06625 0.63 0.00875 0.00528537 0.235987 -0.00054951
0.06875 0.63 0.00875 0.00559492 0.234654 -0.000579979
0.07125 0.63 0.00875 0.00575863 0.233322 -0.000548152
0.07375 0.63 0.00875 0.00581257 0.232003 -0.000464575
0.07625 0.63 0.00875 0.00575081 0.230683 -0.000370437
0.07875 0.63 0.00875 0.00559823 0.22936 -0.000292308
0.08125 0.63 0.00875 0.00531665 0.228039 -0.000257007
0.08375 0.63 0.00875 0.00491741 0.226751 -0.000246102
0.08625 0.63 0.00875 0.00440823 0.225558 -0.000241326
0.08875 0.63 0.00875 0.00391617 0.22467 -0.000218944
0.09125 0.63 0.00875 0.00313343 0.223053 -0.000206268
0.09375 0.63 0.00875 0.00271327 0.22223 -0.00014129
0.09625 0.63 0.00875 0.0020937 0.223042 -0.000284988
0.09875 0.63 0.00875 0.000827748 0.207218 -0.000794187
0.00125 0.63 0.01125 8.81014e-05 0.182955 0.000321643
0.00375 0.63 0.01125 -0.000813858 0.204749 -0.000243159
0.00625 0.63 0.01125 -0.00144352 0.204958 -0.00042058
0.00875 0.63 0.01125 -0.00110196 0.205104 -0.000293082
0.01125 0.63 0.01125 -0.00146885 0.207405 -0.000263675
0.01375 0.63 0.01125 -0.00157695 0.20892 -0.000242627
0.01625 0.63 0.01125 -0.00171585 0.210788 -0.000220592
0.01875 0.63 0.01125 -0.0018687 0.212854 -0.000178257
0.02125 0.63 0.01125 -0.0019862 0.215017 -0.000107295
0.02375 0.63 0.01125 -0.00207059 0.21727 7.21049e-07
0.02625 0.63 0.01125 -0.00213861 0.21961 0.000125768
0.02875 0.63 0.01125 -0.00215917 0.222032 0.000243819
0.03125 0.63 0.01125 -0.00212334 0.224526 0.000339689
0.03375 0.63 0.01125 -0.00200084 0.227062 0.000410324
0.03625 0.63 0.01125 -0.00178124 0.229564 0.000481528
0.03875 0.63 0.01125 -0.00145166 0.231941 0.000559952
0.04125 0.63 0.01125 -0.00101867 0.234108 0.000635521
0.04375 0.63 0.01125 -0.000492842 0.235994 0.000697454
0.04625 0.63 0.01125 0.000106677 0.237558 0.000723607
0.04875 0.63 0.01125 0.000769547 0.238759 0.000717366
0.05125 0.63 0.01125 0.00148927 0.239549 0.00069206
0.05375 0.63 0.01125 0.00224307 0.239909 0.000644001
0.05625 0.63 0.01125 0.00300284 0.239848 0.000563123
0.05875 0.63 0.01125 0.00373944 0.239404 0.000453528
0.06125 0.63 0.01125 0.00442141 0.238625 0.000310701
0.06375 0.63 0.01125 0.00502049 0.237577 0.000153818
0.06625 0.63 0.01125 0.00549917 0.236339 5.695e-06
0.06875 0.63 0.01125 0.00583476 0.235004 -0.000110672
0.07125 0.63 0.01125 0.00602003 0.233648 -0.000193506
0.07375 0.63 0.01125 0.00608368 0.232291 -0.000250691
0.07625 0.63 0.01125 0.00602046 0.230934 -0.000306317
0.07875 0.63 0.01125 0.00585698 0.229575 -0.000360882
0.08125 0.63 0.01125 0.00556179 0.228228 -0.000423871
0.08375 0.63 0.01125 0.00515573 0.226926 -0.00049222
0.08625 0.63 0.01125 0.00464288 0.22572 -0.000554234
0.08875 0.63 0.01125 0.00414706 0.224821 -0.000621554
0.09125 0.63 0.01125 0.0033429 0.223166 -0.000668866
0.09375 0.63 0.01125 0.00291523 0.222243 -0.000743982
0.09625 0.63 0.01125 0.00217368 0.223022 -0.000760134
0.09875 0.63 0.01125 0.000821611 0.20732 -0.000110671
0.00125 0.63 0.01375 0.000481659 0.179796 0.00149121
0.00375 0.63 0.01375 -1.11787e-05 0.206003 0.000377969
0.00625 0.63 0.01375 -0.000951709 0.20649 -0.000193011
0.00875 0.63 0.01375 -0.000863371 0.205762 0.000308822
0.01125 0.63 0.01375 -0.00138711 0.20795 0.00014621
0.01375 0.63 0.01375 -0.00158411 0.209437 0.000216143
0.01625 0.63 0.01375 -0.00175074 0.211328 0.000245928
0.01875 0.63 0.01375 -0.00188543 0.213454 0.000250099
0.02125 0.63 0.01375 -0.00194826 0.215657 0.000240958
0.02375 0.63 0.01375 -0.00196036 0.217887 0.000288606
0.02625 0.63 0.01375 -0.00197008 0.220118 0.000332309
0.02875 0.63 0.01375 -0.0019508 0.222379 0.00038184
0.03125 0.63 0.01375 -0.00189039 0.224702 0.000433604
0.03375 0.63 0.01375 -0.00175075 0.227069 0.000439485
0.03625 0.63 0.01375 -0.00152055 0.229392 0.000424104
0.03875 0.63 0.01375 -0.00118772 0.231585 0.000420626
0.04125 0.63 0.01375 -0.000757637 0.233565 0.000403557
0.04375 0.63 0.01375 -0.000241283 0.235291 0.000365993
0.04625 0.63 0.01375 0.000342958 0.236756 0.000300627
0.04875 0.63 0.01375 0.000989916 0.237926 0.00021046
0.05125 0.63 0.01375 0.00168835 0.238745 0.000124063
0.05375 0.63 0.01375 0.00241645 0.23919 4.96915e-05
0.05625 0.63 0.01375 0.00314935 0.239261 -2.0298e-05
0.05875 0.63 0.01375 0.0038583 0.238998 -8.17772e-05
0.06125 0.63 0.01375 0.00452079 0.238428 -0.00014855
0.06375 0.63 0.01375 0.005115 0.237589 -0.000210375
0.06625 0.63 0.01375 0.00559602 0.236534 -0.000245069
0.06875 0.63 0.01375 0.00594304 0.235358 -0.000260713
0.07125 0.63 0.01375 0.0061451 0.234138 -0.000273815
0.07375 0.63 0.01375 0.00622988 0.232884 -0.000279283
0.07625 0.63 0.01375 0.00619516 0.23159 -0.000309272
0.07875 0.63 0.01375 0.00606881 0.23023 -0.000334932
0.08125 0.63 0.01375 0.00580853 0.228799 -0.000370948
0.08375 0.63 0.01375 0.00542127 0.227347 -0.000387735
0.08625 0.63 0.01375 0.00487505 0.225988 -0.000381344
0.08875 0.63 0.01375 0.00426994 0.224971 -0.000437439
0.09125 0.63 0.01375 0.00324982 0.223224 -0.000318346
0.09375 0.63 0.01375 0.00247859 0.222754 -0.000559894
0.09625 0.63 0.01375 0.00167964 0.223889 -0.000380076
0.09875 0.63 0.01375 0.000721082 0.205192 0.00122102
0.00125 0.63 0.01625 0.00168184 0.176487 0.00114959
0.00375 0.63 0.01625 0.00100257 0.205687 -0.00110618
0.00625 0.63 0.01625 -0.00115731 0.20756 -0.000616041
0.00875 0.63 0.01625 -0.000793178 0.20753 5.02053e-05
0.01125 0.63 0.01625 -0.00111404 0.209433 -0.000189542
0.01375 0.63 0.01625 -0.00123925 0.210802 -0.000104429
0.01625 0.63 0.01625 -0.00139041 0.212357 -9.2322e-05
0.01875 0.63 0.01625 -0.00146781 0.21402 -0.000141834
0.02125 0.63 0.01625 -0.00146927 0.215705 -0.000205315
0.02375 0.63 0.01625 -0.00140227 0.217365 -0.000177978
0.02625 0.63 0.01625 -0.00137559 0.218967 -0.000205004
0.02875 0.63 0.01625 -0.00137855 0.220611 -0.000199203
0.03125 0.63 0.01625 -0.0013532 0.222386 -0.000166733
0.03375 0.63 0.01625 -0.00123729 0.224294 -0.000196223
0.03625 0.63 0.01625 -0.00102941 0.226221 -0.000248124
0.03875 0.63 0.01625 -0.00072505 0.228069 -0.000221991
0.04125 0.63 0.01625 -0.000338398 0.229783 -0.000161896
0.04375 0.63 0.01625 0.000134485 0.231341 -0.000125365
0.04625 0.63 0.01625 0.00068712 0.232736 -0.000113346
0.04875 0.63 0.01625 0.00130839 0.23393 -0.000198109
0.05125 0.63 0.01625 0.00198736 0.234829 -0.000306584
0.05375 0.63 0.01625 0.00271282 0.235377 -0.000394218
0.05625 0.63 0.01625 0.00342938 0.235593 -0.000486476
0.05875 0.63 0.01625 0.00410369 0.235522 -0.000573426
0.06125 0.63 0.01625 0.00471781 0.235198 -0.000604879
0.06375 0.63 0.01625 0.00524965 0.234615 -0.000593986
0.06625 0.63 0.01625 0.00564062 0.23382 -0.000534182
0.06875 0.63 0.01625 0.00586847 0.232955 -0.000441093
0.07125 0.63 0.01625 0.0059435 0.232134 -0.000340198
0.07375 0.63 0.01625 0.00591509 0.23138 -0.000243634
0.07625 0.63 0.01625 0.00577791 0.23067 -0.000184976
0.07875 0.63 0.01625 0.00558027 0.229945 -0.000125073
0.08125 0.63 0.01625 0.00528891 0.229152 -0.000118516
0.08375 0.63 0.01625 0.00494198 0.228305 -8.39974e-05
0.08625 0.63 0.01625 0.00443433 0.227502 6.84437e-06
0.08875 0.63 0.01625 0.00388201 0.226904 2.46924e-05
0.09125 0.63 0.01625 0.0029494 0.225551 0.000226009
0.09375 0.63 0.01625 0.00223796 0.225051 -4.61804e-05
0.09625 0.63 0.01625 0.000771692 0.225485 -0.000466564
0.09875 0.63 0.01625 -5.46736e-05 0.205045 0.00187799
0.00125 0.63 0.01875 0.000227643 0.167205 0.000182874
0.00375 0.63 0.01875 -0.00101297 0.175053 -0.00156099
0.00625 0.63 0.01875 -0.00203201 0.17906 -0.000709881
0.00875 0.63 0.01875 -0.00207128 0.184516 -0.000537575
0.01125 0.63 0.01875 -0.00229405 0.188797 -0.000577455
0.01375 0.63 0.01875 -0.00238896 0.193457 -0.000532128
0.01625 0.63 0.01875 -0.00262353 0.198376 -0.000529889
0.01875 0.63 0.01875 -0.0028174 0.203564 -0.000540902
0.02125 0.63 0.01875 -0.00291203 0.208945 -0.000539834
0.02375 0.63 0.01875 -0.00281699 0.214282 -0.000466955
0.02625 0.63 0.01875 -0.00267161 0.219311 -0.00041185
0.02875 0.63 0.01875 -0.00246316 0.224184 -0.000337285
0.03125 0.63 0.01875 -0.00218527 0.228928 -0.000266003
0.03375 0.63 0.01875 -0.00180221 0.233465 -0.00023892
0.03625 0.63 0.01875 -0.00133949 0.237794 -0.000223864
0.03875 0.63 0.01875 -0.000786215 0.241866 -0.000138902
0.04125 0.63 0.01875 -0.000137982 0.245609 -1.7749e-05
0.04375 0.63 0.01875 0.000621114 0.248906 7.77467e-05
0.04625 0.63 0.01875 0.00148078 0.251666 0.000134878
0.04875 0.63 0.01875 0.0024222 0.253829 0.000104932
0.05125 0.63 0.01875 0.00335502 0.255296 4.23854e-05
0.05375 0.63 0.01875 0.00421258 0.255997 -3.19851e-07
0.05625 0.63 0.01875 0.00500305 0.255948 -4.09252e-05
0.05875 0.63 0.01875 0.00572268 0.255168 -9.94662e-05
0.06125 0.63 0.01875 0.006364 0.253703 -0.000122438
0.06375 0.63 0.01875 0.00691913 0.251587 -0.00013021
0.06625 0.63 0.01875 0.00735016 0.248861 -0.000111062
0.06875 0.63 0.01875 0.0076294 0.245702 -6.58211e-05
0.07125 0.63 0.01875 0.00771758 0.242252 -1.18088e-05
0.07375 0.63 0.01875 0.00766587 0.2385 2.55394e-05
0.07625 0.63 0.01875 0.00747429 0.234478 4.70146e-05
0.07875 0.63 0.01875 0.00721295 0.230263 6.80865e-05
0.08125 0.63 0.01875 0.00685441 0.225871 4.39343e-05
0.08375 0.63 0.01875 0.00641077 0.221371 2.46187e-05
0.08625 0.63 0.01875 0.00569556 0.217099 6.99737e-05
0.08875 0.63 0.01875 0.00494326 0.213193 0.000106749
0.09125 0.63 0.01875 0.00393917 0.209255 0.000183277
0.09375 0.63 0.01875 0.0032541 0.205086 0.000137801
0.09625 0.63 0.01875 0.00208978 0.203042 -0.000363759
0.09875 0.63 0.01875 0.000358486 0.196513 0.00114823
