# alphaMean.water  FACE_DATA 80
#  x  y  z  alphaMean.water
0.0025 0.63 0.0025 1
0.0075 0.63 0.0025 1
0.0125 0.63 0.0025 0.999998
0.0175 0.63 0.0025 0.999975
0.0225 0.63 0.0025 0.999805
0.0275 0.63 0.0025 0.999277
0.0325 0.63 0.0025 0.998389
0.0375 0.63 0.0025 0.997303
0.0425 0.63 0.0025 0.995993
0.0475 0.63 0.0025 0.994529
0.0525 0.63 0.0025 0.993465
0.0575 0.63 0.0025 0.993601
0.0625 0.63 0.0025 0.994904
0.0675 0.63 0.0025 0.996726
0.0725 0.63 0.0025 0.998534
0.0775 0.63 0.0025 0.999599
0.0825 0.63 0.0025 0.999931
0.0875 0.63 0.0025 0.999993
0.0925 0.63 0.0025 1
0.0975 0.63 0.0025 1
0.0025 0.63 0.0075 1
0.0075 0.63 0.0075 0.999999
0.0125 0.63 0.0075 0.999982
0.0175 0.63 0.0075 0.999851
0.0225 0.63 0.0075 0.999362
0.0275 0.63 0.0075 0.998286
0.0325 0.63 0.0075 0.996609
0.0375 0.63 0.0075 0.994545
0.0425 0.63 0.0075 0.992345
0.0475 0.63 0.0075 0.990359
0.0525 0.63 0.0075 0.989321
0.0575 0.63 0.0075 0.989814
0.0625 0.63 0.0075 0.991552
0.0675 0.63 0.0075 0.99402
0.0725 0.63 0.0075 0.996768
0.0775 0.63 0.0075 0.998821
0.0825 0.63 0.0075 0.999742
0.0875 0.63 0.0075 0.99997
0.0925 0.63 0.0075 0.999999
0.0975 0.63 0.0075 1
0.0025 0.63 0.0125 1
0.0075 0.63 0.0125 0.999998
0.0125 0.63 0.0125 0.999943
0.0175 0.63 0.0125 0.999612
0.0225 0.63 0.0125 0.998755
0.0275 0.63 0.0125 0.997432
0.0325 0.63 0.0125 0.995796
0.0375 0.63 0.0125 0.993965
0.0425 0.63 0.0125 0.992034
0.0475 0.63 0.0125 0.990422
0.0525 0.63 0.0125 0.9896
0.0575 0.63 0.0125 0.990126
0.0625 0.63 0.0125 0.991604
0.0675 0.63 0.0125 0.993784
0.0725 0.63 0.0125 0.996298
0.0775 0.63 0.0125 0.998445
0.0825 0.63 0.0125 0.999605
0.0875 0.63 0.0125 0.999948
0.0925 0.63 0.0125 0.999997
0.0975 0.63 0.0125 1
0.0025 0.63 0.0175 1
0.0075 0.63 0.0175 0.999998
0.0125 0.63 0.0175 0.999953
0.0175 0.63 0.0175 0.999689
0.0225 0.63 0.0175 0.999054
0.0275 0.63 0.0175 0.998198
0.0325 0.63 0.0175 0.99729
0.0375 0.63 0.0175 0.996298
0.0425 0.63 0.0175 0.995394
0.0475 0.63 0.0175 0.994759
0.0525 0.63 0.0175 0.994431
0.0575 0.63 0.0175 0.994649
0.0625 0.63 0.0175 0.995436
0.0675 0.63 0.0175 0.996555
0.0725 0.63 0.0175 0.997908
0.0775 0.63 0.0175 0.999144
0.0825 0.63 0.0175 0.999816
0.0875 0.63 0.0175 0.999982
0.0925 0.63 0.0175 0.999999
0.0975 0.63 0.0175 1
