# alphaMean.water  FACE_DATA 80
#  x  y  z  alphaMean.water
0.0025 0.08 0.0025 1
0.0075 0.08 0.0025 1
0.0125 0.08 0.0025 1
0.0175 0.08 0.0025 0.999999
0.0225 0.08 0.0025 0.999984
0.0275 0.08 0.0025 0.999853
0.0325 0.08 0.0025 0.999319
0.0375 0.08 0.0025 0.998115
0.0425 0.08 0.0025 0.996671
0.0475 0.08 0.0025 0.995722
0.0525 0.08 0.0025 0.995843
0.0575 0.08 0.0025 0.997893
0.0625 0.08 0.0025 0.99961
0.0675 0.08 0.0025 0.999985
0.0725 0.08 0.0025 1
0.0775 0.08 0.0025 1
0.0825 0.08 0.0025 1
0.0875 0.08 0.0025 1
0.0925 0.08 0.0025 1
0.0975 0.08 0.0025 1
0.0025 0.08 0.0075 1
0.0075 0.08 0.0075 1
0.0125 0.08 0.0075 1
0.0175 0.08 0.0075 1
0.0225 0.08 0.0075 0.999989
0.0275 0.08 0.0075 0.999766
0.0325 0.08 0.0075 0.998376
0.0375 0.08 0.0075 0.994734
0.0425 0.08 0.0075 0.987434
0.0475 0.08 0.0075 0.977262
0.0525 0.08 0.0075 0.974303
0.0575 0.08 0.0075 0.984471
0.0625 0.08 0.0075 0.997173
0.0675 0.08 0.0075 0.999876
0.0725 0.08 0.0075 0.999998
0.0775 0.08 0.0075 1
0.0825 0.08 0.0075 1
0.0875 0.08 0.0075 1
0.0925 0.08 0.0075 1
0.0975 0.08 0.0075 1
0.0025 0.08 0.0125 1
0.0075 0.08 0.0125 1
0.0125 0.08 0.0125 1
0.0175 0.08 0.0125 1
0.0225 0.08 0.0125 1
0.0275 0.08 0.0125 0.999983
0.0325 0.08 0.0125 0.999783
0.0375 0.08 0.0125 0.998184
0.0425 0.08 0.0125 0.990363
0.0475 0.08 0.0125 0.978345
0.0525 0.08 0.0125 0.974512
0.0575 0.08 0.0125 0.982549
0.0625 0.08 0.0125 0.993694
0.0675 0.08 0.0125 0.998201
0.0725 0.08 0.0125 0.999739
0.0775 0.08 0.0125 0.999988
0.0825 0.08 0.0125 1
0.0875 0.08 0.0125 1
0.0925 0.08 0.0125 1
0.0975 0.08 0.0125 1
0.0025 0.08 0.0175 1
0.0075 0.08 0.0175 1
0.0125 0.08 0.0175 1
0.0175 0.08 0.0175 1
0.0225 0.08 0.0175 0.999999
0.0275 0.08 0.0175 0.999993
0.0325 0.08 0.0175 0.999956
0.0375 0.08 0.0175 0.999684
0.0425 0.08 0.0175 0.998577
0.0475 0.08 0.0175 0.996845
0.0525 0.08 0.0175 0.995423
0.0575 0.08 0.0175 0.99607
0.0625 0.08 0.0175 0.997877
0.0675 0.08 0.0175 0.999127
0.0725 0.08 0.0175 0.999797
0.0775 0.08 0.0175 0.999979
0.0825 0.08 0.0175 0.999999
0.0875 0.08 0.0175 1
0.0925 0.08 0.0175 1
0.0975 0.08 0.0175 1
