# alphaMean.air  FACE_DATA 80
#  x  y  z  alphaMean.air
0.0025 0.63 0.0025 2.99136e-09
0.0075 0.63 0.0025 5.91961e-08
0.0125 0.63 0.0025 1.57682e-06
0.0175 0.63 0.0025 2.54693e-05
0.0225 0.63 0.0025 0.000194645
0.0275 0.63 0.0025 0.000723335
0.0325 0.63 0.0025 0.00161111
0.0375 0.63 0.0025 0.00269675
0.0425 0.63 0.0025 0.00400733
0.0475 0.63 0.0025 0.00547112
0.0525 0.63 0.0025 0.00653548
0.0575 0.63 0.0025 0.00639891
0.0625 0.63 0.0025 0.00509574
0.0675 0.63 0.0025 0.00327421
0.0725 0.63 0.0025 0.00146595
0.0775 0.63 0.0025 0.000401055
0.0825 0.63 0.0025 6.9363e-05
0.0875 0.63 0.0025 7.16454e-06
0.0925 0.63 0.0025 2.87597e-07
0.0975 0.63 0.0025 4.18278e-09
0.0025 0.63 0.0075 1.6604e-08
0.0075 0.63 0.0075 7.65447e-07
0.0125 0.63 0.0075 1.75433e-05
0.0175 0.63 0.0075 0.000148502
0.0225 0.63 0.0075 0.000638065
0.0275 0.63 0.0075 0.00171383
0.0325 0.63 0.0075 0.00339119
0.0375 0.63 0.0075 0.00545543
0.0425 0.63 0.0075 0.00765505
0.0475 0.63 0.0075 0.00964071
0.0525 0.63 0.0075 0.0106795
0.0575 0.63 0.0075 0.0101858
0.0625 0.63 0.0075 0.00844793
0.0675 0.63 0.0075 0.00597994
0.0725 0.63 0.0075 0.00323205
0.0775 0.63 0.0075 0.00117943
0.0825 0.63 0.0075 0.000257864
0.0875 0.63 0.0075 3.0195e-05
0.0925 0.63 0.0075 1.47285e-06
0.0975 0.63 0.0075 2.47984e-08
0.0025 0.63 0.0125 3.40188e-08
0.0075 0.63 0.0125 2.4962e-06
0.0125 0.63 0.0125 5.69996e-05
0.0175 0.63 0.0125 0.000388431
0.0225 0.63 0.0125 0.00124493
0.0275 0.63 0.0125 0.00256773
0.0325 0.63 0.0125 0.00420431
0.0375 0.63 0.0125 0.00603483
0.0425 0.63 0.0125 0.00796564
0.0475 0.63 0.0125 0.00957769
0.0525 0.63 0.0125 0.0103995
0.0575 0.63 0.0125 0.00987355
0.0625 0.63 0.0125 0.00839567
0.0675 0.63 0.0125 0.00621617
0.0725 0.63 0.0125 0.00370178
0.0775 0.63 0.0125 0.00155534
0.0825 0.63 0.0125 0.000394845
0.0875 0.63 0.0125 5.2432e-05
0.0925 0.63 0.0125 2.70208e-06
0.0975 0.63 0.0125 4.03856e-08
0.0025 0.63 0.0175 2.31307e-08
0.0075 0.63 0.0175 2.02102e-06
0.0125 0.63 0.0175 4.68521e-05
0.0175 0.63 0.0175 0.000311497
0.0225 0.63 0.0175 0.000945882
0.0275 0.63 0.0175 0.00180208
0.0325 0.63 0.0175 0.00271007
0.0375 0.63 0.0175 0.00370178
0.0425 0.63 0.0175 0.00460602
0.0475 0.63 0.0175 0.00524051
0.0525 0.63 0.0175 0.00556891
0.0575 0.63 0.0175 0.00535124
0.0625 0.63 0.0175 0.00456433
0.0675 0.63 0.0175 0.0034446
0.0725 0.63 0.0175 0.00209224
0.0775 0.63 0.0175 0.000856082
0.0825 0.63 0.0175 0.000184189
0.0875 0.63 0.0175 1.80481e-05
0.0925 0.63 0.0175 7.43503e-07
0.0975 0.63 0.0175 1.6335e-08
