# alphaMean.air  FACE_DATA 80
#  x  y  z  alphaMean.air
0.0025 0.63 0.0025 4.20151e-11
0.0075 0.63 0.0025 9.91839e-09
0.0125 0.63 0.0025 3.86328e-07
0.0175 0.63 0.0025 8.48679e-06
0.0225 0.63 0.0025 7.14237e-05
0.0275 0.63 0.0025 0.0002959
0.0325 0.63 0.0025 0.000860623
0.0375 0.63 0.0025 0.00189069
0.0425 0.63 0.0025 0.0031704
0.0475 0.63 0.0025 0.00409788
0.0525 0.63 0.0025 0.00412136
0.0575 0.63 0.0025 0.00327002
0.0625 0.63 0.0025 0.00189661
0.0675 0.63 0.0025 0.000779311
0.0725 0.63 0.0025 0.000212084
0.0775 0.63 0.0025 3.5244e-05
0.0825 0.63 0.0025 3.4331e-06
0.0875 0.63 0.0025 2.22024e-07
0.0925 0.63 0.0025 1.18989e-08
0.0975 0.63 0.0025 3.8142e-10
0.0025 0.63 0.0075 2.78431e-11
0.0075 0.63 0.0075 1.38994e-08
0.0125 0.63 0.0075 1.0242e-06
0.0175 0.63 0.0075 2.35344e-05
0.0225 0.63 0.0075 0.00020984
0.0275 0.63 0.0075 0.000881861
0.0325 0.63 0.0075 0.00217754
0.0375 0.63 0.0075 0.00387411
0.0425 0.63 0.0075 0.00590293
0.0475 0.63 0.0075 0.0076974
0.0525 0.63 0.0075 0.00753805
0.0575 0.63 0.0075 0.00548832
0.0625 0.63 0.0075 0.00318928
0.0675 0.63 0.0075 0.00146305
0.0725 0.63 0.0075 0.000475306
0.0775 0.63 0.0075 9.28963e-05
0.0825 0.63 0.0075 9.2865e-06
0.0875 0.63 0.0075 4.12279e-07
0.0925 0.63 0.0075 9.23771e-09
0.0975 0.63 0.0075 1.05005e-10
0.0025 0.63 0.0125 5.92378e-11
0.0075 0.63 0.0125 3.71616e-08
0.0125 0.63 0.0125 3.37182e-06
0.0175 0.63 0.0125 7.07773e-05
0.0225 0.63 0.0125 0.000489419
0.0275 0.63 0.0125 0.00160438
0.0325 0.63 0.0125 0.00321425
0.0375 0.63 0.0125 0.00487642
0.0425 0.63 0.0125 0.0065859
0.0475 0.63 0.0125 0.00806099
0.0525 0.63 0.0125 0.0077854
0.0575 0.63 0.0125 0.00569398
0.0625 0.63 0.0125 0.00351991
0.0675 0.63 0.0125 0.00190256
0.0725 0.63 0.0125 0.000835067
0.0775 0.63 0.0125 0.00023664
0.0825 0.63 0.0125 3.18129e-05
0.0875 0.63 0.0125 1.27868e-06
0.0925 0.63 0.0125 9.8893e-09
0.0975 0.63 0.0125 5.28002e-11
0.0025 0.63 0.0175 7.44784e-11
0.0075 0.63 0.0175 4.22158e-08
0.0125 0.63 0.0175 3.3679e-06
0.0175 0.63 0.0175 6.12567e-05
0.0225 0.63 0.0175 0.000390075
0.0275 0.63 0.0175 0.00119871
0.0325 0.63 0.0175 0.00227823
0.0375 0.63 0.0175 0.00329438
0.0425 0.63 0.0175 0.00408021
0.0475 0.63 0.0175 0.00433461
0.0525 0.63 0.0175 0.00398807
0.0575 0.63 0.0175 0.00312991
0.0625 0.63 0.0175 0.00213511
0.0675 0.63 0.0175 0.00128989
0.0725 0.63 0.0175 0.000648149
0.0775 0.63 0.0175 0.000218096
0.0825 0.63 0.0175 3.48153e-05
0.0875 0.63 0.0175 1.69718e-06
0.0925 0.63 0.0175 1.41936e-08
0.0975 0.63 0.0175 1.28326e-11
