# alphaMean.air  FACE_DATA 80
#  x  y  z  alphaMean.air
0.0025 0.08 0.0025 8.76085e-16
0.0075 0.08 0.0025 6.81006e-12
0.0125 0.08 0.0025 4.16586e-09
0.0175 0.08 0.0025 5.42489e-07
0.0225 0.08 0.0025 1.55089e-05
0.0275 0.08 0.0025 0.000146735
0.0325 0.08 0.0025 0.000680555
0.0375 0.08 0.0025 0.00188499
0.0425 0.08 0.0025 0.00332858
0.0475 0.08 0.0025 0.00427806
0.0525 0.08 0.0025 0.00415697
0.0575 0.08 0.0025 0.00210679
0.0625 0.08 0.0025 0.000390132
0.0675 0.08 0.0025 1.46257e-05
0.0725 0.08 0.0025 1.28112e-07
0.0775 0.08 0.0025 4.5735e-10
0.0825 0.08 0.0025 2.14079e-12
0.0875 0.08 0.0025 5.97479e-15
0.0925 0.08 0.0025 6.91741e-17
0.0975 0.08 0.0025 1.3395e-17
0.0025 0.08 0.0075 1.76507e-16
0.0075 0.08 0.0075 5.66935e-13
0.0125 0.08 0.0075 3.27006e-10
0.0175 0.08 0.0075 1.14809e-07
0.0225 0.08 0.0075 1.14195e-05
0.0275 0.08 0.0075 0.000233788
0.0325 0.08 0.0075 0.00162431
0.0375 0.08 0.0075 0.00526584
0.0425 0.08 0.0075 0.0125659
0.0475 0.08 0.0075 0.0227375
0.0525 0.08 0.0075 0.0256973
0.0575 0.08 0.0075 0.0155286
0.0625 0.08 0.0075 0.00282653
0.0675 0.08 0.0075 0.000124363
0.0725 0.08 0.0075 1.69354e-06
0.0775 0.08 0.0075 4.70581e-08
0.0825 0.08 0.0075 7.75815e-10
0.0875 0.08 0.0075 3.67931e-12
0.0925 0.08 0.0075 1.35868e-14
0.0975 0.08 0.0075 4.08896e-17
0.0025 0.08 0.0125 3.1877e-17
0.0075 0.08 0.0125 5.45836e-15
0.0125 0.08 0.0125 4.05377e-12
0.0175 0.08 0.0125 3.25821e-09
0.0225 0.08 0.0125 4.77411e-07
0.0275 0.08 0.0125 1.66943e-05
0.0325 0.08 0.0125 0.000216769
0.0375 0.08 0.0125 0.00181551
0.0425 0.08 0.0125 0.00963671
0.0475 0.08 0.0125 0.0216551
0.0525 0.08 0.0125 0.0254882
0.0575 0.08 0.0125 0.0174515
0.0625 0.08 0.0125 0.00630587
0.0675 0.08 0.0125 0.00179863
0.0725 0.08 0.0125 0.000261014
0.0775 0.08 0.0125 1.16769e-05
0.0825 0.08 0.0125 9.53748e-08
0.0875 0.08 0.0125 3.02389e-10
0.0925 0.08 0.0125 3.73966e-13
0.0975 0.08 0.0125 9.99292e-17
0.0025 0.08 0.0175 2.75805e-17
0.0075 0.08 0.0175 3.78351e-15
0.0125 0.08 0.0175 2.94617e-11
0.0175 0.08 0.0175 1.35122e-08
0.0225 0.08 0.0175 6.53033e-07
0.0275 0.08 0.0175 6.92797e-06
0.0325 0.08 0.0175 4.41864e-05
0.0375 0.08 0.0175 0.000315743
0.0425 0.08 0.0175 0.00142291
0.0475 0.08 0.0175 0.00315459
0.0525 0.08 0.0175 0.00457742
0.0575 0.08 0.0175 0.00393023
0.0625 0.08 0.0175 0.00212258
0.0675 0.08 0.0175 0.000873095
0.0725 0.08 0.0175 0.000203027
0.0775 0.08 0.0175 2.11583e-05
0.0825 0.08 0.0175 5.82419e-07
0.0875 0.08 0.0175 3.25613e-09
0.0925 0.08 0.0175 1.61351e-12
0.0975 0.08 0.0175 6.9106e-17
