# alphaMean.air  FACE_DATA 80
#  x  y  z  alphaMean.air
0.0025 0.08 0.0025 1.53734e-18
0.0075 0.08 0.0025 1.74309e-18
0.0125 0.08 0.0025 2.54249e-18
0.0175 0.08 0.0025 3.31755e-18
0.0225 0.08 0.0025 2.5142e-16
0.0275 0.08 0.0025 2.56324e-13
0.0325 0.08 0.0025 3.91555e-10
0.0375 0.08 0.0025 9.75042e-07
0.0425 0.08 0.0025 0.000215644
0.0475 0.08 0.0025 0.00039742
0.0525 0.08 0.0025 0.00017425
0.0575 0.08 0.0025 0.000178753
0.0625 0.08 0.0025 5.08778e-06
0.0675 0.08 0.0025 8.39186e-08
0.0725 0.08 0.0025 3.1385e-10
0.0775 0.08 0.0025 5.01573e-14
0.0825 0.08 0.0025 9.35421e-18
0.0875 0.08 0.0025 1.0593e-18
0.0925 0.08 0.0025 6.98326e-19
0.0975 0.08 0.0025 4.69094e-19
0.0025 0.08 0.0075 1.51466e-18
0.0075 0.08 0.0075 1.83324e-18
0.0125 0.08 0.0075 1.99209e-18
0.0175 0.08 0.0075 5.12499e-17
0.0225 0.08 0.0075 3.82257e-14
0.0275 0.08 0.0075 1.98083e-11
0.0325 0.08 0.0075 7.76546e-09
0.0375 0.08 0.0075 1.98867e-06
0.0425 0.08 0.0075 0.0070082
0.0475 0.08 0.0075 0.0201677
0.0525 0.08 0.0075 0.0218495
0.0575 0.08 0.0075 0.00892209
0.0625 0.08 0.0075 1.32454e-05
0.0675 0.08 0.0075 4.95431e-09
0.0725 0.08 0.0075 2.21316e-11
0.0775 0.08 0.0075 3.87813e-14
0.0825 0.08 0.0075 5.11702e-17
0.0875 0.08 0.0075 1.22931e-18
0.0925 0.08 0.0075 1.12859e-18
0.0975 0.08 0.0075 7.06258e-19
0.0025 0.08 0.0125 8.4797e-19
0.0075 0.08 0.0125 1.6637e-18
0.0125 0.08 0.0125 1.57827e-18
0.0175 0.08 0.0125 5.08955e-17
0.0225 0.08 0.0125 3.82939e-14
0.0275 0.08 0.0125 1.96208e-11
0.0325 0.08 0.0125 4.12653e-09
0.0375 0.08 0.0125 6.01489e-07
0.0425 0.08 0.0125 0.00696765
0.0475 0.08 0.0125 0.0202054
0.0525 0.08 0.0125 0.0220058
0.0575 0.08 0.0125 0.00888157
0.0625 0.08 0.0125 7.85456e-06
0.0675 0.08 0.0125 4.17207e-09
0.0725 0.08 0.0125 1.96509e-11
0.0775 0.08 0.0125 3.85447e-14
0.0825 0.08 0.0125 5.13912e-17
0.0875 0.08 0.0125 1.47935e-18
0.0925 0.08 0.0125 1.22553e-18
0.0975 0.08 0.0125 7.74442e-19
0.0025 0.08 0.0175 5.27385e-19
0.0075 0.08 0.0175 8.31079e-19
0.0125 0.08 0.0175 1.14708e-18
0.0175 0.08 0.0175 1.9166e-18
0.0225 0.08 0.0175 3.8384e-16
0.0275 0.08 0.0175 5.24584e-13
0.0325 0.08 0.0175 6.57563e-10
0.0375 0.08 0.0175 6.0754e-07
0.0425 0.08 0.0175 0.000225543
0.0475 0.08 0.0175 0.000372598
0.0525 0.08 0.0175 0.000218497
0.0575 0.08 0.0175 0.000162806
0.0625 0.08 0.0175 2.02582e-06
0.0675 0.08 0.0175 6.82016e-09
0.0725 0.08 0.0175 2.5112e-12
0.0775 0.08 0.0175 2.43824e-16
0.0825 0.08 0.0175 1.70389e-18
0.0875 0.08 0.0175 1.34553e-18
0.0925 0.08 0.0175 1.00581e-18
0.0975 0.08 0.0175 6.93366e-19
