# pMean  FACE_DATA 80
#  x  y  z  pMean
0.0025 0.63 0.0025 101650
0.0075 0.63 0.0025 101650
0.0125 0.63 0.0025 101649
0.0175 0.63 0.0025 101649
0.0225 0.63 0.0025 101649
0.0275 0.63 0.0025 101648
0.0325 0.63 0.0025 101648
0.0375 0.63 0.0025 101647
0.0425 0.63 0.0025 101647
0.0475 0.63 0.0025 101647
0.0525 0.63 0.0025 101647
0.0575 0.63 0.0025 101647
0.0625 0.63 0.0025 101648
0.0675 0.63 0.0025 101648
0.0725 0.63 0.0025 101649
0.0775 0.63 0.0025 101649
0.0825 0.63 0.0025 101650
0.0875 0.63 0.0025 101650
0.0925 0.63 0.0025 101650
0.0975 0.63 0.0025 101651
0.0025 0.63 0.0075 101650
0.0075 0.63 0.0075 101650
0.0125 0.63 0.0075 101649
0.0175 0.63 0.0075 101649
0.0225 0.63 0.0075 101649
0.0275 0.63 0.0075 101648
0.0325 0.63 0.0075 101648
0.0375 0.63 0.0075 101647
0.0425 0.63 0.0075 101647
0.0475 0.63 0.0075 101647
0.0525 0.63 0.0075 101647
0.0575 0.63 0.0075 101647
0.0625 0.63 0.0075 101648
0.0675 0.63 0.0075 101648
0.0725 0.63 0.0075 101649
0.0775 0.63 0.0075 101649
0.0825 0.63 0.0075 101650
0.0875 0.63 0.0075 101650
0.0925 0.63 0.0075 101650
0.0975 0.63 0.0075 101651
0.0025 0.63 0.0125 101650
0.0075 0.63 0.0125 101650
0.0125 0.63 0.0125 101649
0.0175 0.63 0.0125 101649
0.0225 0.63 0.0125 101649
0.0275 0.63 0.0125 101648
0.0325 0.63 0.0125 101648
0.0375 0.63 0.0125 101647
0.0425 0.63 0.0125 101647
0.0475 0.63 0.0125 101647
0.0525 0.63 0.0125 101647
0.0575 0.63 0.0125 101647
0.0625 0.63 0.0125 101648
0.0675 0.63 0.0125 101648
0.0725 0.63 0.0125 101649
0.0775 0.63 0.0125 101649
0.0825 0.63 0.0125 101650
0.0875 0.63 0.0125 101650
0.0925 0.63 0.0125 101650
0.0975 0.63 0.0125 101651
0.0025 0.63 0.0175 101650
0.0075 0.63 0.0175 101650
0.0125 0.63 0.0175 101649
0.0175 0.63 0.0175 101649
0.0225 0.63 0.0175 101649
0.0275 0.63 0.0175 101648
0.0325 0.63 0.0175 101648
0.0375 0.63 0.0175 101647
0.0425 0.63 0.0175 101647
0.0475 0.63 0.0175 101647
0.0525 0.63 0.0175 101647
0.0575 0.63 0.0175 101647
0.0625 0.63 0.0175 101648
0.0675 0.63 0.0175 101648
0.0725 0.63 0.0175 101649
0.0775 0.63 0.0175 101649
0.0825 0.63 0.0175 101650
0.0875 0.63 0.0175 101650
0.0925 0.63 0.0175 101651
0.0975 0.63 0.0175 101651
