# pMean  FACE_DATA 80
#  x  y  z  pMean
0.0025 0.08 0.0025 107015
0.0075 0.08 0.0025 107015
0.0125 0.08 0.0025 107014
0.0175 0.08 0.0025 107014
0.0225 0.08 0.0025 107013
0.0275 0.08 0.0025 107012
0.0325 0.08 0.0025 107012
0.0375 0.08 0.0025 107011
0.0425 0.08 0.0025 107011
0.0475 0.08 0.0025 107011
0.0525 0.08 0.0025 107012
0.0575 0.08 0.0025 107012
0.0625 0.08 0.0025 107013
0.0675 0.08 0.0025 107013
0.0725 0.08 0.0025 107013
0.0775 0.08 0.0025 107014
0.0825 0.08 0.0025 107014
0.0875 0.08 0.0025 107015
0.0925 0.08 0.0025 107016
0.0975 0.08 0.0025 107016
0.0025 0.08 0.0075 107015
0.0075 0.08 0.0075 107015
0.0125 0.08 0.0075 107014
0.0175 0.08 0.0075 107013
0.0225 0.08 0.0075 107013
0.0275 0.08 0.0075 107012
0.0325 0.08 0.0075 107012
0.0375 0.08 0.0075 107011
0.0425 0.08 0.0075 107011
0.0475 0.08 0.0075 107011
0.0525 0.08 0.0075 107011
0.0575 0.08 0.0075 107012
0.0625 0.08 0.0075 107012
0.0675 0.08 0.0075 107013
0.0725 0.08 0.0075 107013
0.0775 0.08 0.0075 107014
0.0825 0.08 0.0075 107014
0.0875 0.08 0.0075 107015
0.0925 0.08 0.0075 107015
0.0975 0.08 0.0075 107016
0.0025 0.08 0.0125 107015
0.0075 0.08 0.0125 107015
0.0125 0.08 0.0125 107014
0.0175 0.08 0.0125 107013
0.0225 0.08 0.0125 107013
0.0275 0.08 0.0125 107012
0.0325 0.08 0.0125 107012
0.0375 0.08 0.0125 107011
0.0425 0.08 0.0125 107011
0.0475 0.08 0.0125 107011
0.0525 0.08 0.0125 107011
0.0575 0.08 0.0125 107012
0.0625 0.08 0.0125 107012
0.0675 0.08 0.0125 107013
0.0725 0.08 0.0125 107013
0.0775 0.08 0.0125 107014
0.0825 0.08 0.0125 107014
0.0875 0.08 0.0125 107015
0.0925 0.08 0.0125 107015
0.0975 0.08 0.0125 107016
0.0025 0.08 0.0175 107015
0.0075 0.08 0.0175 107015
0.0125 0.08 0.0175 107014
0.0175 0.08 0.0175 107014
0.0225 0.08 0.0175 107013
0.0275 0.08 0.0175 107012
0.0325 0.08 0.0175 107012
0.0375 0.08 0.0175 107011
0.0425 0.08 0.0175 107011
0.0475 0.08 0.0175 107011
0.0525 0.08 0.0175 107012
0.0575 0.08 0.0175 107012
0.0625 0.08 0.0175 107013
0.0675 0.08 0.0175 107013
0.0725 0.08 0.0175 107013
0.0775 0.08 0.0175 107014
0.0825 0.08 0.0175 107015
0.0875 0.08 0.0175 107015
0.0925 0.08 0.0175 107015
0.0975 0.08 0.0175 107016
