# UMean.air  FACE_DATA 80
#  x  y  z  UMean.air_x  UMean.air_y  UMean.air_z  
0.0025 0.08 0.0025 -0.000304424 0.241191 -0.000614001
0.0075 0.08 0.0025 -0.000289431 0.243077 -0.000456089
0.0125 0.08 0.0025 -0.00111397 0.249888 0.000766544
0.0175 0.08 0.0025 -0.00126943 0.261529 0.000823277
0.0225 0.08 0.0025 -0.00188635 0.275546 0.000224048
0.0275 0.08 0.0025 -0.00284812 0.288647 -0.000127883
0.0325 0.08 0.0025 -0.00301027 0.304475 -0.000600011
0.0375 0.08 0.0025 -0.00393974 0.320962 -0.000319007
0.0425 0.08 0.0025 -0.00149645 0.333933 -0.00145415
0.0475 0.08 0.0025 0.0004066 0.346211 -0.00150503
0.0525 0.08 0.0025 0.00132028 0.352948 -0.00315678
0.0575 0.08 0.0025 0.00280418 0.344479 -0.00207412
0.0625 0.08 0.0025 0.00314278 0.328444 0.000259795
0.0675 0.08 0.0025 -0.00229264 0.31206 0.00216136
0.0725 0.08 0.0025 -0.00751993 0.298897 0.00102419
0.0775 0.08 0.0025 -0.00934289 0.283157 -0.000219839
0.0825 0.08 0.0025 -0.0100645 0.270979 5.56269e-05
0.0875 0.08 0.0025 -0.00886624 0.261182 0.000432747
0.0925 0.08 0.0025 -0.0069584 0.25883 -0.00216094
0.0975 0.08 0.0025 -0.00208923 0.258686 -0.00323931
0.0025 0.08 0.0075 -0.000680004 0.232487 0.0076533
0.0075 0.08 0.0075 -0.00107384 0.235199 0.00812967
0.0125 0.08 0.0075 -0.000852943 0.243459 0.00707274
0.0175 0.08 0.0075 0.00202646 0.256816 0.00548337
0.0225 0.08 0.0075 0.00376927 0.272146 0.00415136
0.0275 0.08 0.0075 0.00516331 0.288593 0.00401908
0.0325 0.08 0.0075 0.0054032 0.306407 0.00279795
0.0375 0.08 0.0075 0.00361256 0.330978 0.00255196
0.0425 0.08 0.0075 0.00504291 0.361539 0.0012237
0.0475 0.08 0.0075 0.004209 0.401531 0.000906756
0.0525 0.08 0.0075 0.004929 0.411372 0.00169779
0.0575 0.08 0.0075 0.00401361 0.38788 0.000961109
0.0625 0.08 0.0075 0.00213701 0.349985 0.00319647
0.0675 0.08 0.0075 -0.000315101 0.32008 0.00354938
0.0725 0.08 0.0075 -0.0061744 0.308173 0.000497316
0.0775 0.08 0.0075 -0.00616076 0.28937 -0.00370191
0.0825 0.08 0.0075 -0.00621012 0.275364 -0.00427345
0.0875 0.08 0.0075 -0.00212019 0.264434 -0.00296879
0.0925 0.08 0.0075 -0.00107667 0.260218 -0.000986099
0.0975 0.08 0.0075 0.00138641 0.260282 -0.00041147
0.0025 0.08 0.0125 0.00132096 0.230672 0.00540118
0.0075 0.08 0.0125 0.00518314 0.231016 0.00314028
0.0125 0.08 0.0125 0.00838902 0.23634 0.00158362
0.0175 0.08 0.0125 0.0132229 0.246976 -0.00166963
0.0225 0.08 0.0125 0.0153313 0.265418 -0.00251554
0.0275 0.08 0.0125 0.015766 0.281939 -0.000776042
0.0325 0.08 0.0125 0.0148528 0.303079 -4.97996e-05
0.0375 0.08 0.0125 0.012184 0.327286 0.00129818
0.0425 0.08 0.0125 0.0110722 0.354844 0.00305083
0.0475 0.08 0.0125 0.00986353 0.390347 0.00336727
0.0525 0.08 0.0125 0.00934392 0.395733 0.00471847
0.0575 0.08 0.0125 0.0102557 0.37355 0.00605454
0.0625 0.08 0.0125 0.0101414 0.343846 0.00425202
0.0675 0.08 0.0125 0.010925 0.320715 0.00162948
0.0725 0.08 0.0125 0.00945967 0.306874 -0.00305009
0.0775 0.08 0.0125 0.00891208 0.298122 -0.00758846
0.0825 0.08 0.0125 0.00608657 0.28513 -0.0083463
0.0875 0.08 0.0125 0.00525453 0.274523 -0.00650605
0.0925 0.08 0.0125 0.00266379 0.269512 -0.0042373
0.0975 0.08 0.0125 0.00128329 0.267939 0.000494373
0.0025 0.08 0.0175 0.0046736 0.237121 0.00547743
0.0075 0.08 0.0175 0.0125839 0.237508 0.00315864
0.0125 0.08 0.0175 0.0156797 0.240103 -0.000223581
0.0175 0.08 0.0175 0.0161348 0.249435 -0.00239286
0.0225 0.08 0.0175 0.0122905 0.265969 -0.000474376
0.0275 0.08 0.0175 0.00997823 0.284954 0.00173638
0.0325 0.08 0.0175 0.00862104 0.303022 0.00238754
0.0375 0.08 0.0175 0.00799729 0.320049 0.00218784
0.0425 0.08 0.0175 0.00752834 0.33233 0.00366009
0.0475 0.08 0.0175 0.00890606 0.340977 0.00553278
0.0525 0.08 0.0175 0.00939351 0.340262 0.00394409
0.0575 0.08 0.0175 0.0111058 0.332249 0.00372205
0.0625 0.08 0.0175 0.0146334 0.32334 0.00367155
0.0675 0.08 0.0175 0.0155937 0.313519 0.00157336
0.0725 0.08 0.0175 0.0134144 0.302462 -0.00076427
0.0775 0.08 0.0175 0.00849961 0.295078 -0.00273701
0.0825 0.08 0.0175 0.000799013 0.286605 -0.00318803
0.0875 0.08 0.0175 -0.00395989 0.279299 -0.00168907
0.0925 0.08 0.0175 -0.00731929 0.275972 0.00239629
0.0975 0.08 0.0175 -0.00450314 0.274171 0.00733954
