# UMean.air  FACE_DATA 80
#  x  y  z  UMean.air_x  UMean.air_y  UMean.air_z  
0.0025 0.63 0.0025 0.00291783 0.226789 -0.00515048
0.0075 0.63 0.0025 0.0068849 0.230723 -0.00339713
0.0125 0.63 0.0025 0.00877419 0.237923 -0.00116673
0.0175 0.63 0.0025 0.00847199 0.249086 2.99701e-05
0.0225 0.63 0.0025 0.00707198 0.265781 7.08304e-06
0.0275 0.63 0.0025 0.00578699 0.283457 0.000251293
0.0325 0.63 0.0025 0.00411401 0.298393 0.000552632
0.0375 0.63 0.0025 0.00271806 0.309853 0.000697909
0.0425 0.63 0.0025 0.00126196 0.31939 0.00116906
0.0475 0.63 0.0025 -0.000787643 0.327334 0.00153689
0.0525 0.63 0.0025 -0.00313382 0.333405 0.00160844
0.0575 0.63 0.0025 -0.00517108 0.33504 0.00142274
0.0625 0.63 0.0025 -0.00693396 0.329457 0.00100079
0.0675 0.63 0.0025 -0.00862213 0.31811 0.000221261
0.0725 0.63 0.0025 -0.00941533 0.304606 -0.000641343
0.0775 0.63 0.0025 -0.00949513 0.290703 -0.00154682
0.0825 0.63 0.0025 -0.00886393 0.277879 -0.00210749
0.0875 0.63 0.0025 -0.0070305 0.265653 -0.00208497
0.0925 0.63 0.0025 -0.00462915 0.253968 -0.00226009
0.0975 0.63 0.0025 -0.00235923 0.247727 -0.00400026
0.0025 0.63 0.0075 -0.00147333 0.226782 -0.00244347
0.0075 0.63 0.0075 -0.000580843 0.233706 -0.00124873
0.0125 0.63 0.0075 -0.000837808 0.243617 0.000256829
0.0175 0.63 0.0075 0.0001857 0.258688 0.00156352
0.0225 0.63 0.0075 0.000727893 0.277589 0.00175177
0.0275 0.63 0.0075 0.00070855 0.297283 0.0016426
0.0325 0.63 0.0075 0.000553697 0.315308 0.0016147
0.0375 0.63 0.0075 0.000242965 0.33035 0.00120815
0.0425 0.63 0.0075 -5.10834e-05 0.342612 0.00125506
0.0475 0.63 0.0075 -0.000359084 0.351219 0.00164183
0.0525 0.63 0.0075 -0.000740959 0.356706 0.0012432
0.0575 0.63 0.0075 -0.00102657 0.357754 0.000698743
0.0625 0.63 0.0075 -0.00108257 0.352291 0.000735399
0.0675 0.63 0.0075 -0.00163505 0.340431 0.000257226
0.0725 0.63 0.0075 -0.00178064 0.324748 -0.000552007
0.0775 0.63 0.0075 -0.00141717 0.306966 -0.00164758
0.0825 0.63 0.0075 -0.000909556 0.288688 -0.00246194
0.0875 0.63 0.0075 8.75602e-05 0.273329 -0.00236516
0.0925 0.63 0.0075 0.00117014 0.259319 -0.0018624
0.0975 0.63 0.0075 0.00152829 0.250055 -0.00258891
0.0025 0.63 0.0125 -0.00207309 0.228283 -0.000898632
0.0075 0.63 0.0125 -0.00194078 0.235625 -0.00372509
0.0125 0.63 0.0125 -0.00373306 0.248357 -0.00256729
0.0175 0.63 0.0125 -0.00181043 0.265175 -0.000837445
0.0225 0.63 0.0125 -6.6733e-05 0.283044 -0.000395495
0.0275 0.63 0.0125 0.00084146 0.301572 -0.000188055
0.0325 0.63 0.0125 0.00155703 0.319486 -0.000103566
0.0375 0.63 0.0125 0.0018459 0.33625 -0.000359585
0.0425 0.63 0.0125 0.00176778 0.351325 -0.000325998
0.0475 0.63 0.0125 0.00186801 0.361556 -6.4209e-05
0.0525 0.63 0.0125 0.00212814 0.366445 -0.000414483
0.0575 0.63 0.0125 0.00215029 0.36713 -0.00104932
0.0625 0.63 0.0125 0.0022889 0.36249 -0.000973972
0.0675 0.63 0.0125 0.00254594 0.351824 -0.00161626
0.0725 0.63 0.0125 0.00262681 0.335824 -0.00284962
0.0775 0.63 0.0125 0.00338301 0.316068 -0.00397979
0.0825 0.63 0.0125 0.00349291 0.294616 -0.00500295
0.0875 0.63 0.0125 0.00395853 0.276747 -0.00493171
0.0925 0.63 0.0125 0.00318929 0.261777 -0.00406498
0.0975 0.63 0.0125 0.00214039 0.251823 -0.0008876
0.0025 0.63 0.0175 0.00249961 0.229244 0.00383992
0.0075 0.63 0.0175 0.00310867 0.234642 0.000993976
0.0125 0.63 0.0175 0.00163963 0.24591 0.000529796
0.0175 0.63 0.0175 0.00228892 0.261207 -1.14105e-05
0.0225 0.63 0.0175 0.00420362 0.276831 0.000131076
0.0275 0.63 0.0175 0.00507668 0.29205 1.11385e-05
0.0325 0.63 0.0175 0.0053552 0.307483 -0.000281991
0.0375 0.63 0.0175 0.00456122 0.323353 -0.000731675
0.0425 0.63 0.0175 0.00297207 0.338029 -0.00090016
0.0475 0.63 0.0175 0.00203378 0.348101 -0.000877867
0.0525 0.63 0.0175 0.00150467 0.353733 -0.000948326
0.0575 0.63 0.0175 0.0012433 0.354876 -0.00109844
0.0625 0.63 0.0175 0.000794549 0.351549 -0.000866853
0.0675 0.63 0.0175 0.00130199 0.342978 -0.000767934
0.0725 0.63 0.0175 0.0010267 0.328962 -0.00106863
0.0775 0.63 0.0175 0.00152082 0.309879 -0.0014163
0.0825 0.63 0.0175 0.00123704 0.289158 -0.00177882
0.0875 0.63 0.0175 0.000255258 0.272114 -0.00128317
0.0925 0.63 0.0175 -0.00168543 0.259553 0.000495299
0.0975 0.63 0.0175 -0.00199628 0.252166 0.00344197
