# UMean.water  FACE_DATA 80
#  x  y  z  UMean.water_x  UMean.water_y  UMean.water_z  
0.0025 0.63 0.0025 0.00213808 -0.0702121 -0.00538809
0.0075 0.63 0.0025 0.0053489 -0.0662148 -0.00364814
0.0125 0.63 0.0025 0.00676415 -0.0594648 -0.00139684
0.0175 0.63 0.0025 0.00549882 -0.0476745 -0.000110879
0.0225 0.63 0.0025 0.00372521 -0.0308402 -0.000311198
0.0275 0.63 0.0025 0.00247249 -0.0129929 -0.000154718
0.0325 0.63 0.0025 0.00123451 0.00173826 0.000131203
0.0375 0.63 0.0025 0.000252133 0.0131055 0.000282482
0.0425 0.63 0.0025 -0.000447131 0.0225994 0.000856752
0.0475 0.63 0.0025 -0.00176432 0.0305292 0.00134872
0.0525 0.63 0.0025 -0.00340325 0.0366961 0.00141452
0.0575 0.63 0.0025 -0.00461208 0.0383516 0.00112445
0.0625 0.63 0.0025 -0.00546556 0.0327866 0.000707675
0.0675 0.63 0.0025 -0.00633632 0.0215434 -0.00011048
0.0725 0.63 0.0025 -0.0065364 0.00821054 -0.00104397
0.0775 0.63 0.0025 -0.00626931 -0.00546266 -0.00189316
0.0825 0.63 0.0025 -0.00504125 -0.0185081 -0.00229446
0.0875 0.63 0.0025 -0.00369709 -0.0317066 -0.00195765
0.0925 0.63 0.0025 -0.00314511 -0.0435446 -0.00229465
0.0975 0.63 0.0025 -0.00169619 -0.0493657 -0.00398374
0.0025 0.63 0.0075 -0.00221917 -0.0701846 -0.0026315
0.0075 0.63 0.0075 -0.00274483 -0.063817 -0.00152444
0.0125 0.63 0.0075 -0.00259662 -0.0535979 0.000164757
0.0175 0.63 0.0075 -0.00235945 -0.0383184 0.0014545
0.0225 0.63 0.0075 -0.00264849 -0.0191803 0.00157617
0.0275 0.63 0.0075 -0.00262741 0.000488818 0.00151263
0.0325 0.63 0.0075 -0.0025404 0.0185369 0.00132508
0.0375 0.63 0.0075 -0.00239117 0.0336039 0.000730842
0.0425 0.63 0.0075 -0.00188688 0.0457442 0.000730521
0.0475 0.63 0.0075 -0.00133818 0.0544417 0.00110922
0.0525 0.63 0.0075 -0.000957882 0.0600762 0.000656934
0.0575 0.63 0.0075 -0.000494443 0.0611284 7.90121e-05
0.0625 0.63 0.0075 0.00022824 0.0556425 0.000120549
0.0675 0.63 0.0075 0.000409126 0.0438498 -0.000333221
0.0725 0.63 0.0075 0.000809439 0.0282334 -0.00121776
0.0775 0.63 0.0075 0.00145729 0.0104637 -0.00224025
0.0825 0.63 0.0075 0.00209637 -0.00775274 -0.00284357
0.0875 0.63 0.0075 0.00305376 -0.024508 -0.00240126
0.0925 0.63 0.0075 0.00309966 -0.0383563 -0.0017873
0.0975 0.63 0.0075 0.00222307 -0.0470941 -0.0025278
0.0025 0.63 0.0125 -0.00277158 -0.0686834 -0.000730478
0.0075 0.63 0.0125 -0.00399803 -0.0619205 -0.00322878
0.0125 0.63 0.0125 -0.00512978 -0.0492075 -0.00209176
0.0175 0.63 0.0125 -0.00419395 -0.0321137 -0.000467197
0.0225 0.63 0.0125 -0.00344103 -0.0138278 -1.17651e-06
0.0275 0.63 0.0125 -0.00251564 0.00471479 0.000184922
0.0325 0.63 0.0125 -0.00169773 0.0227192 0.000131825
0.0375 0.63 0.0125 -0.000900106 0.0395434 -0.000383901
0.0425 0.63 0.0125 -0.000221073 0.054246 -0.000424886
0.0475 0.63 0.0125 0.000847036 0.0641673 -0.000216134
0.0525 0.63 0.0125 0.00198447 0.0695026 -0.000711313
0.0575 0.63 0.0125 0.00270462 0.0702039 -0.00141119
0.0625 0.63 0.0125 0.00357877 0.0655145 -0.00132028
0.0675 0.63 0.0125 0.00444732 0.0548594 -0.00195609
0.0725 0.63 0.0125 0.00500138 0.0388071 -0.00319237
0.0775 0.63 0.0125 0.00601273 0.0189643 -0.0042122
0.0825 0.63 0.0125 0.00610495 -0.00233581 -0.0049722
0.0875 0.63 0.0125 0.0062879 -0.0212728 -0.0044727
0.0925 0.63 0.0125 0.00490239 -0.0363221 -0.00342543
0.0975 0.63 0.0125 0.00284982 -0.045295 -0.000670356
0.0025 0.63 0.0175 0.00188444 -0.0677839 0.00393798
0.0075 0.63 0.0175 0.00126012 -0.0627687 0.00123312
0.0125 0.63 0.0175 -2.75984e-05 -0.0513517 0.000889545
0.0175 0.63 0.0175 0.000314024 -0.0363244 0.000454557
0.0225 0.63 0.0175 0.0012229 -0.0203483 0.000498077
0.0275 0.63 0.0175 0.00194057 -0.00479788 0.000333358
0.0325 0.63 0.0175 0.00223547 0.0108196 -1.57288e-05
0.0375 0.63 0.0175 0.0018684 0.0267397 -0.000573079
0.0425 0.63 0.0175 0.0010265 0.0412505 -0.000764332
0.0475 0.63 0.0175 0.000997163 0.0509211 -0.00077139
0.0525 0.63 0.0175 0.00110588 0.0562361 -0.00104009
0.0575 0.63 0.0175 0.00120146 0.0574455 -0.00133327
0.0625 0.63 0.0175 0.00147268 0.0539336 -0.00107358
0.0675 0.63 0.0175 0.00260631 0.045276 -0.00102115
0.0725 0.63 0.0175 0.00281709 0.0311404 -0.00135975
0.0775 0.63 0.0175 0.00375006 0.0118392 -0.00156412
0.0825 0.63 0.0175 0.00308178 -0.00882506 -0.00167083
0.0875 0.63 0.0175 0.00158968 -0.0260789 -0.00089719
0.0925 0.63 0.0175 -0.00032575 -0.0385091 0.00085185
0.0975 0.63 0.0175 -0.00135417 -0.0450095 0.00357788
