# UMean.water  FACE_DATA 80
#  x  y  z  UMean.water_x  UMean.water_y  UMean.water_z  
0.0025 0.08 0.0025 -0.00131237 -0.0542796 -0.000798686
0.0075 0.08 0.0025 -0.00272199 -0.0524177 -0.000840033
0.0125 0.08 0.0025 -0.00460247 -0.0453377 0.000254601
0.0175 0.08 0.0025 -0.00472586 -0.0349371 0.000375365
0.0225 0.08 0.0025 -0.00373626 -0.0219715 9.35067e-05
0.0275 0.08 0.0025 -0.00358672 -0.00894061 -2.71678e-05
0.0325 0.08 0.0025 -0.0036845 0.00687055 -0.00047627
0.0375 0.08 0.0025 -0.0047589 0.0219121 -0.000514743
0.0425 0.08 0.0025 -0.00302069 0.0370685 -0.00235376
0.0475 0.08 0.0025 -0.00103 0.0493291 -0.00225329
0.0525 0.08 0.0025 0.0016238 0.0561499 -0.00333792
0.0575 0.08 0.0025 0.00340401 0.0482183 -0.00265529
0.0625 0.08 0.0025 0.0030699 0.0322221 -0.000846424
0.0675 0.08 0.0025 -0.000821935 0.0152863 0.000976085
0.0725 0.08 0.0025 -0.00491875 0.000866851 0.000373213
0.0775 0.08 0.0025 -0.00628067 -0.0122254 -0.000743362
0.0825 0.08 0.0025 -0.00619767 -0.0244068 -0.000561679
0.0875 0.08 0.0025 -0.00499582 -0.0341502 -0.000267526
0.0925 0.08 0.0025 -0.00371109 -0.0365512 -0.00301604
0.0975 0.08 0.0025 -0.000612558 -0.0367438 -0.00395447
0.0025 0.08 0.0075 -0.00188994 -0.0629342 0.00741047
0.0075 0.08 0.0075 -0.00384166 -0.0602829 0.00756656
0.0125 0.08 0.0075 -0.00460534 -0.0519895 0.00635932
0.0175 0.08 0.0075 -0.00195947 -0.0394177 0.00471757
0.0225 0.08 0.0075 0.0014998 -0.0252001 0.00396037
0.0275 0.08 0.0075 0.00419132 -0.0100988 0.0043293
0.0325 0.08 0.0075 0.00468874 0.00934008 0.00313565
0.0375 0.08 0.0075 0.0019092 0.0310089 0.00188323
0.0425 0.08 0.0075 0.00241753 0.0636867 -9.62024e-06
0.0475 0.08 0.0075 0.00199775 0.10326 -0.000575023
0.0525 0.08 0.0075 0.00579405 0.111944 0.000644831
0.0575 0.08 0.0075 0.00603976 0.0901529 0.000723544
0.0625 0.08 0.0075 0.0036355 0.0533032 0.00197435
0.0675 0.08 0.0075 0.000668116 0.024581 0.00125284
0.0725 0.08 0.0075 -0.00374645 0.00800531 -0.00156815
0.0775 0.08 0.0075 -0.00317856 -0.00515841 -0.00422249
0.0825 0.08 0.0075 -0.00255719 -0.0198474 -0.00450308
0.0875 0.08 0.0075 0.00150773 -0.0308948 -0.0036228
0.0925 0.08 0.0075 0.00215407 -0.0352158 -0.00211448
0.0975 0.08 0.0075 0.00300214 -0.0351825 -0.00139179
0.0025 0.08 0.0125 -1.15163e-05 -0.064787 0.00598656
0.0075 0.08 0.0125 0.00226257 -0.0644914 0.0036781
0.0125 0.08 0.0125 0.00464213 -0.0590925 0.00191841
0.0175 0.08 0.0125 0.00911451 -0.0485082 -0.00132653
0.0225 0.08 0.0125 0.0113873 -0.0322647 -0.00191418
0.0275 0.08 0.0125 0.0121258 -0.0143946 0.000247782
0.0325 0.08 0.0125 0.0121564 0.00653472 0.00130101
0.0375 0.08 0.0125 0.0103125 0.0287789 0.00220797
0.0425 0.08 0.0125 0.00952388 0.0583457 0.00307751
0.0475 0.08 0.0125 0.00729339 0.0929 0.00313186
0.0525 0.08 0.0125 0.00867698 0.0980061 0.00535095
0.0575 0.08 0.0125 0.0116494 0.076219 0.00692434
0.0625 0.08 0.0125 0.0109187 0.045759 0.00462964
0.0675 0.08 0.0125 0.0106859 0.0243538 0.00167385
0.0725 0.08 0.0125 0.00948902 0.0101086 -0.00257767
0.0775 0.08 0.0125 0.0101314 -0.000904861 -0.00612507
0.0825 0.08 0.0125 0.009013 -0.011685 -0.00693937
0.0875 0.08 0.0125 0.00797142 -0.0207449 -0.00563757
0.0925 0.08 0.0125 0.00558236 -0.0258136 -0.0039199
0.0975 0.08 0.0125 0.00290739 -0.027483 0.00053112
0.0025 0.08 0.0175 0.00341574 -0.0583611 0.00612123
0.0075 0.08 0.0175 0.00956272 -0.0580235 0.00387608
0.0125 0.08 0.0175 0.0116479 -0.0553602 0.000318835
0.0175 0.08 0.0175 0.0116727 -0.0460851 -0.00194855
0.0225 0.08 0.0175 0.0082668 -0.0295416 1.22359e-05
0.0275 0.08 0.0175 0.00705512 -0.0105675 0.00216928
0.0325 0.08 0.0175 0.00650499 0.00685239 0.00270983
0.0375 0.08 0.0175 0.00712117 0.0236205 0.00254421
0.0425 0.08 0.0175 0.00722788 0.0373553 0.0035691
0.0475 0.08 0.0175 0.00793782 0.046002 0.00489816
0.0525 0.08 0.0175 0.00888448 0.0452608 0.0038662
0.0575 0.08 0.0175 0.0120137 0.0374923 0.0046484
0.0625 0.08 0.0175 0.0151189 0.0270727 0.00420124
0.0675 0.08 0.0175 0.01553 0.018056 0.001834
0.0725 0.08 0.0175 0.0137666 0.00735226 -0.000424003
0.0775 0.08 0.0175 0.009268 -0.00258337 -0.00235208
0.0825 0.08 0.0175 0.00346413 -0.0103284 -0.00225327
0.0875 0.08 0.0175 -0.0015195 -0.0158189 -0.000854212
0.0925 0.08 0.0175 -0.00492781 -0.0193158 0.00298611
0.0975 0.08 0.0175 -0.00316611 -0.0211758 0.00764045
