# alphaMean.water  FACE_DATA 320
#  x  y  z  alphaMean.water
0.00125 0.08 0.00125 0.993634
0.00375 0.08 0.00125 0.992822
0.00625 0.08 0.00125 0.992677
0.00875 0.08 0.00125 0.993117
0.01125 0.08 0.00125 0.994173
0.01375 0.08 0.00125 0.994727
0.01625 0.08 0.00125 0.994271
0.01875 0.08 0.00125 0.991909
0.02125 0.08 0.00125 0.98785
0.02375 0.08 0.00125 0.98209
0.02625 0.08 0.00125 0.974851
0.02875 0.08 0.00125 0.965835
0.03125 0.08 0.00125 0.957317
0.03375 0.08 0.00125 0.951225
0.03625 0.08 0.00125 0.948064
0.03875 0.08 0.00125 0.949193
0.04125 0.08 0.00125 0.951886
0.04375 0.08 0.00125 0.953289
0.04625 0.08 0.00125 0.953562
0.04875 0.08 0.00125 0.953328
0.05125 0.08 0.00125 0.953309
0.05375 0.08 0.00125 0.953741
0.05625 0.08 0.00125 0.95479
0.05875 0.08 0.00125 0.955671
0.06125 0.08 0.00125 0.956609
0.06375 0.08 0.00125 0.957541
0.06625 0.08 0.00125 0.959716
0.06875 0.08 0.00125 0.963841
0.07125 0.08 0.00125 0.969624
0.07375 0.08 0.00125 0.976763
0.07625 0.08 0.00125 0.983331
0.07875 0.08 0.00125 0.9885
0.08125 0.08 0.00125 0.99231
0.08375 0.08 0.00125 0.994314
0.08625 0.08 0.00125 0.994641
0.08875 0.08 0.00125 0.994327
0.09125 0.08 0.00125 0.993353
0.09375 0.08 0.00125 0.993187
0.09625 0.08 0.00125 0.993578
0.09875 0.08 0.00125 0.995027
0.00125 0.08 0.00375 0.990351
0.00375 0.08 0.00375 0.979946
0.00625 0.08 0.00375 0.981837
0.00875 0.08 0.00375 0.985277
0.01125 0.08 0.00375 0.987217
0.01375 0.08 0.00375 0.988928
0.01625 0.08 0.00375 0.989969
0.01875 0.08 0.00375 0.989525
0.02125 0.08 0.00375 0.986946
0.02375 0.08 0.00375 0.981952
0.02625 0.08 0.00375 0.976232
0.02875 0.08 0.00375 0.970698
0.03125 0.08 0.00375 0.966219
0.03375 0.08 0.00375 0.96323
0.03625 0.08 0.00375 0.961341
0.03875 0.08 0.00375 0.960576
0.04125 0.08 0.00375 0.961014
0.04375 0.08 0.00375 0.961401
0.04625 0.08 0.00375 0.96155
0.04875 0.08 0.00375 0.961821
0.05125 0.08 0.00375 0.961733
0.05375 0.08 0.00375 0.961991
0.05625 0.08 0.00375 0.962208
0.05875 0.08 0.00375 0.963725
0.06125 0.08 0.00375 0.965544
0.06375 0.08 0.00375 0.967152
0.06625 0.08 0.00375 0.969271
0.06875 0.08 0.00375 0.972169
0.07125 0.08 0.00375 0.976149
0.07375 0.08 0.00375 0.980764
0.07625 0.08 0.00375 0.985071
0.07875 0.08 0.00375 0.988437
0.08125 0.08 0.00375 0.990555
0.08375 0.08 0.00375 0.991131
0.08625 0.08 0.00375 0.98951
0.08875 0.08 0.00375 0.98643
0.09125 0.08 0.00375 0.982662
0.09375 0.08 0.00375 0.978863
0.09625 0.08 0.00375 0.977023
0.09875 0.08 0.00375 0.990762
0.00125 0.08 0.00625 0.989533
0.00375 0.08 0.00625 0.980204
0.00625 0.08 0.00625 0.984908
0.00875 0.08 0.00625 0.987846
0.01125 0.08 0.00625 0.989253
0.01375 0.08 0.00625 0.99047
0.01625 0.08 0.00625 0.9912
0.01875 0.08 0.00625 0.990704
0.02125 0.08 0.00625 0.988027
0.02375 0.08 0.00625 0.983289
0.02625 0.08 0.00625 0.977453
0.02875 0.08 0.00625 0.971384
0.03125 0.08 0.00625 0.966048
0.03375 0.08 0.00625 0.962156
0.03625 0.08 0.00625 0.959382
0.03875 0.08 0.00625 0.957963
0.04125 0.08 0.00625 0.957962
0.04375 0.08 0.00625 0.958299
0.04625 0.08 0.00625 0.958221
0.04875 0.08 0.00625 0.958443
0.05125 0.08 0.00625 0.958431
0.05375 0.08 0.00625 0.958312
0.05625 0.08 0.00625 0.958137
0.05875 0.08 0.00625 0.959184
0.06125 0.08 0.00625 0.961391
0.06375 0.08 0.00625 0.963645
0.06625 0.08 0.00625 0.966404
0.06875 0.08 0.00625 0.969996
0.07125 0.08 0.00625 0.97486
0.07375 0.08 0.00625 0.980528
0.07625 0.08 0.00625 0.985579
0.07875 0.08 0.00625 0.98955
0.08125 0.08 0.00625 0.991941
0.08375 0.08 0.00625 0.991935
0.08625 0.08 0.00625 0.990022
0.08875 0.08 0.00625 0.987505
0.09125 0.08 0.00625 0.985227
0.09375 0.08 0.00625 0.98266
0.09625 0.08 0.00625 0.978528
0.09875 0.08 0.00625 0.989043
0.00125 0.08 0.00875 0.989117
0.00375 0.08 0.00875 0.981883
0.00625 0.08 0.00875 0.988085
0.00875 0.08 0.00875 0.99097
0.01125 0.08 0.00875 0.992149
0.01375 0.08 0.00875 0.993128
0.01625 0.08 0.00875 0.993348
0.01875 0.08 0.00875 0.991876
0.02125 0.08 0.00875 0.988555
0.02375 0.08 0.00875 0.983244
0.02625 0.08 0.00875 0.976702
0.02875 0.08 0.00875 0.970066
0.03125 0.08 0.00875 0.963852
0.03375 0.08 0.00875 0.958694
0.03625 0.08 0.00875 0.955072
0.03875 0.08 0.00875 0.953073
0.04125 0.08 0.00875 0.952858
0.04375 0.08 0.00875 0.953003
0.04625 0.08 0.00875 0.952733
0.04875 0.08 0.00875 0.952896
0.05125 0.08 0.00875 0.952913
0.05375 0.08 0.00875 0.952559
0.05625 0.08 0.00875 0.951966
0.05875 0.08 0.00875 0.952771
0.06125 0.08 0.00875 0.955007
0.06375 0.08 0.00875 0.957515
0.06625 0.08 0.00875 0.960815
0.06875 0.08 0.00875 0.965518
0.07125 0.08 0.00875 0.971462
0.07375 0.08 0.00875 0.978555
0.07625 0.08 0.00875 0.984708
0.07875 0.08 0.00875 0.989584
0.08125 0.08 0.00875 0.992727
0.08375 0.08 0.00875 0.992907
0.08625 0.08 0.00875 0.99158
0.08875 0.08 0.00875 0.98956
0.09125 0.08 0.00875 0.988537
0.09375 0.08 0.00875 0.986243
0.09625 0.08 0.00875 0.982261
0.09875 0.08 0.00875 0.988667
0.00125 0.08 0.01125 0.988516
0.00375 0.08 0.01125 0.981224
0.00625 0.08 0.01125 0.987816
0.00875 0.08 0.01125 0.990934
0.01125 0.08 0.01125 0.992453
0.01375 0.08 0.01125 0.993507
0.01625 0.08 0.01125 0.993769
0.01875 0.08 0.01125 0.992478
0.02125 0.08 0.01125 0.989226
0.02375 0.08 0.01125 0.984019
0.02625 0.08 0.01125 0.977399
0.02875 0.08 0.01125 0.97126
0.03125 0.08 0.01125 0.965365
0.03375 0.08 0.01125 0.960507
0.03625 0.08 0.01125 0.957361
0.03875 0.08 0.01125 0.955718
0.04125 0.08 0.01125 0.955393
0.04375 0.08 0.01125 0.955478
0.04625 0.08 0.01125 0.954917
0.04875 0.08 0.01125 0.95435
0.05125 0.08 0.01125 0.953867
0.05375 0.08 0.01125 0.953078
0.05625 0.08 0.01125 0.952499
0.05875 0.08 0.01125 0.953239
0.06125 0.08 0.01125 0.95526
0.06375 0.08 0.01125 0.957534
0.06625 0.08 0.01125 0.960303
0.06875 0.08 0.01125 0.964824
0.07125 0.08 0.01125 0.970669
0.07375 0.08 0.01125 0.977672
0.07625 0.08 0.01125 0.984197
0.07875 0.08 0.01125 0.988947
0.08125 0.08 0.01125 0.991729
0.08375 0.08 0.01125 0.992293
0.08625 0.08 0.01125 0.991263
0.08875 0.08 0.01125 0.98947
0.09125 0.08 0.01125 0.988397
0.09375 0.08 0.01125 0.986574
0.09625 0.08 0.01125 0.983252
0.09875 0.08 0.01125 0.988246
0.00125 0.08 0.01375 0.988352
0.00375 0.08 0.01375 0.978645
0.00625 0.08 0.01375 0.984598
0.00875 0.08 0.01375 0.98842
0.01125 0.08 0.01375 0.990367
0.01375 0.08 0.01375 0.991678
0.01625 0.08 0.01375 0.992269
0.01875 0.08 0.01375 0.991635
0.02125 0.08 0.01375 0.989181
0.02375 0.08 0.01375 0.985051
0.02625 0.08 0.01375 0.979503
0.02875 0.08 0.01375 0.97458
0.03125 0.08 0.01375 0.970179
0.03375 0.08 0.01375 0.966313
0.03625 0.08 0.01375 0.964096
0.03875 0.08 0.01375 0.963008
0.04125 0.08 0.01375 0.962453
0.04375 0.08 0.01375 0.962549
0.04625 0.08 0.01375 0.961934
0.04875 0.08 0.01375 0.960706
0.05125 0.08 0.01375 0.959279
0.05375 0.08 0.01375 0.958232
0.05625 0.08 0.01375 0.958031
0.05875 0.08 0.01375 0.959064
0.06125 0.08 0.01375 0.961229
0.06375 0.08 0.01375 0.96338
0.06625 0.08 0.01375 0.965432
0.06875 0.08 0.01375 0.968679
0.07125 0.08 0.01375 0.973066
0.07375 0.08 0.01375 0.978508
0.07625 0.08 0.01375 0.983741
0.07875 0.08 0.01375 0.987417
0.08125 0.08 0.01375 0.989593
0.08375 0.08 0.01375 0.989828
0.08625 0.08 0.01375 0.988714
0.08875 0.08 0.01375 0.986889
0.09125 0.08 0.01375 0.985565
0.09375 0.08 0.01375 0.983597
0.09625 0.08 0.01375 0.980147
0.09875 0.08 0.01375 0.987972
0.00125 0.08 0.01625 0.990134
0.00375 0.08 0.01625 0.977195
0.00625 0.08 0.01625 0.980353
0.00875 0.08 0.01625 0.984904
0.01125 0.08 0.01625 0.988001
0.01375 0.08 0.01625 0.989757
0.01625 0.08 0.01625 0.990506
0.01875 0.08 0.01625 0.989839
0.02125 0.08 0.01625 0.987827
0.02375 0.08 0.01625 0.985048
0.02625 0.08 0.01625 0.980671
0.02875 0.08 0.01625 0.976475
0.03125 0.08 0.01625 0.973107
0.03375 0.08 0.01625 0.970189
0.03625 0.08 0.01625 0.968598
0.03875 0.08 0.01625 0.968048
0.04125 0.08 0.01625 0.96782
0.04375 0.08 0.01625 0.967819
0.04625 0.08 0.01625 0.966987
0.04875 0.08 0.01625 0.965163
0.05125 0.08 0.01625 0.962634
0.05375 0.08 0.01625 0.960761
0.05625 0.08 0.01625 0.96056
0.05875 0.08 0.01625 0.962039
0.06125 0.08 0.01625 0.964491
0.06375 0.08 0.01625 0.966326
0.06625 0.08 0.01625 0.967793
0.06875 0.08 0.01625 0.969839
0.07125 0.08 0.01625 0.972453
0.07375 0.08 0.01625 0.976448
0.07625 0.08 0.01625 0.980711
0.07875 0.08 0.01625 0.983592
0.08125 0.08 0.01625 0.985024
0.08375 0.08 0.01625 0.985189
0.08625 0.08 0.01625 0.984132
0.08875 0.08 0.01625 0.98242
0.09125 0.08 0.01625 0.980151
0.09375 0.08 0.01625 0.977088
0.09625 0.08 0.01625 0.97694
0.09875 0.08 0.01625 0.989134
0.00125 0.08 0.01875 0.995062
0.00375 0.08 0.01875 0.993008
0.00625 0.08 0.01875 0.992398
0.00875 0.08 0.01875 0.992837
0.01125 0.08 0.01875 0.993314
0.01375 0.08 0.01875 0.99368
0.01625 0.08 0.01875 0.993009
0.01875 0.08 0.01875 0.990896
0.02125 0.08 0.01875 0.987623
0.02375 0.08 0.01875 0.983257
0.02625 0.08 0.01875 0.978343
0.02875 0.08 0.01875 0.973488
0.03125 0.08 0.01875 0.968657
0.03375 0.08 0.01875 0.964271
0.03625 0.08 0.01875 0.962091
0.03875 0.08 0.01875 0.961669
0.04125 0.08 0.01875 0.96247
0.04375 0.08 0.01875 0.964031
0.04625 0.08 0.01875 0.963902
0.04875 0.08 0.01875 0.961937
0.05125 0.08 0.01875 0.958973
0.05375 0.08 0.01875 0.955455
0.05625 0.08 0.01875 0.953221
0.05875 0.08 0.01875 0.952648
0.06125 0.08 0.01875 0.95356
0.06375 0.08 0.01875 0.955691
0.06625 0.08 0.01875 0.958571
0.06875 0.08 0.01875 0.962614
0.07125 0.08 0.01875 0.967489
0.07375 0.08 0.01875 0.973016
0.07625 0.08 0.01875 0.978952
0.07875 0.08 0.01875 0.98417
0.08125 0.08 0.01875 0.988295
0.08375 0.08 0.01875 0.990981
0.08625 0.08 0.01875 0.991966
0.08875 0.08 0.01875 0.992363
0.09125 0.08 0.01875 0.992357
0.09375 0.08 0.01875 0.992093
0.09625 0.08 0.01875 0.992546
0.09875 0.08 0.01875 0.994002
