# alphaMean.air  FACE_DATA 320
#  x  y  z  alphaMean.air
0.00125 0.63 0.00125 0.041276
0.00375 0.63 0.00125 0.0358344
0.00625 0.63 0.00125 0.037128
0.00875 0.63 0.00125 0.0394062
0.01125 0.63 0.00125 0.0398054
0.01375 0.63 0.00125 0.0407512
0.01625 0.63 0.00125 0.0414964
0.01875 0.63 0.00125 0.042186
0.02125 0.63 0.00125 0.042892
0.02375 0.63 0.00125 0.0435703
0.02625 0.63 0.00125 0.0442599
0.02875 0.63 0.00125 0.044878
0.03125 0.63 0.00125 0.0454509
0.03375 0.63 0.00125 0.0459138
0.03625 0.63 0.00125 0.0462583
0.03875 0.63 0.00125 0.0465974
0.04125 0.63 0.00125 0.0468092
0.04375 0.63 0.00125 0.0469151
0.04625 0.63 0.00125 0.0468928
0.04875 0.63 0.00125 0.0467407
0.05125 0.63 0.00125 0.0465302
0.05375 0.63 0.00125 0.0462686
0.05625 0.63 0.00125 0.0460155
0.05875 0.63 0.00125 0.0457455
0.06125 0.63 0.00125 0.0454161
0.06375 0.63 0.00125 0.0450385
0.06625 0.63 0.00125 0.0446447
0.06875 0.63 0.00125 0.044217
0.07125 0.63 0.00125 0.0437249
0.07375 0.63 0.00125 0.0431164
0.07625 0.63 0.00125 0.0424113
0.07875 0.63 0.00125 0.0416597
0.08125 0.63 0.00125 0.0408449
0.08375 0.63 0.00125 0.0400666
0.08625 0.63 0.00125 0.03926
0.08875 0.63 0.00125 0.037963
0.09125 0.63 0.00125 0.0381744
0.09375 0.63 0.00125 0.0349231
0.09625 0.63 0.00125 0.0331222
0.09875 0.63 0.00125 0.0419217
0.00125 0.63 0.00375 0.0359524
0.00375 0.63 0.00375 0.0606536
0.00625 0.63 0.00375 0.052057
0.00875 0.63 0.00375 0.0488349
0.01125 0.63 0.00375 0.0497082
0.01375 0.63 0.00375 0.0486114
0.01625 0.63 0.00375 0.0478249
0.01875 0.63 0.00375 0.0470117
0.02125 0.63 0.00375 0.0462173
0.02375 0.63 0.00375 0.0454987
0.02625 0.63 0.00375 0.0447767
0.02875 0.63 0.00375 0.0440609
0.03125 0.63 0.00375 0.0433637
0.03375 0.63 0.00375 0.0427924
0.03625 0.63 0.00375 0.042379
0.03875 0.63 0.00375 0.0421196
0.04125 0.63 0.00375 0.0420311
0.04375 0.63 0.00375 0.0420547
0.04625 0.63 0.00375 0.0421102
0.04875 0.63 0.00375 0.0421644
0.05125 0.63 0.00375 0.0422084
0.05375 0.63 0.00375 0.0423026
0.05625 0.63 0.00375 0.0424355
0.05875 0.63 0.00375 0.0425833
0.06125 0.63 0.00375 0.0427779
0.06375 0.63 0.00375 0.0430941
0.06625 0.63 0.00375 0.0435418
0.06875 0.63 0.00375 0.0440749
0.07125 0.63 0.00375 0.0447177
0.07375 0.63 0.00375 0.0455285
0.07625 0.63 0.00375 0.0464739
0.07875 0.63 0.00375 0.0475301
0.08125 0.63 0.00375 0.0486399
0.08375 0.63 0.00375 0.0496843
0.08625 0.63 0.00375 0.0507354
0.08875 0.63 0.00375 0.0521213
0.09125 0.63 0.00375 0.0507155
0.09375 0.63 0.00375 0.0557805
0.09625 0.63 0.00375 0.067982
0.09875 0.63 0.00375 0.0325771
0.00125 0.63 0.00625 0.0372751
0.00375 0.63 0.00625 0.0516693
0.00625 0.63 0.00625 0.045824
0.00875 0.63 0.00625 0.0429932
0.01125 0.63 0.00625 0.0443718
0.01375 0.63 0.00625 0.0439725
0.01625 0.63 0.00625 0.0441715
0.01875 0.63 0.00625 0.0443425
0.02125 0.63 0.00625 0.0445144
0.02375 0.63 0.00625 0.044731
0.02625 0.63 0.00625 0.0449226
0.02875 0.63 0.00625 0.0451194
0.03125 0.63 0.00625 0.0452787
0.03375 0.63 0.00625 0.0454143
0.03625 0.63 0.00625 0.045557
0.03875 0.63 0.00625 0.045695
0.04125 0.63 0.00625 0.0458363
0.04375 0.63 0.00625 0.0459331
0.04625 0.63 0.00625 0.0459457
0.04875 0.63 0.00625 0.0459213
0.05125 0.63 0.00625 0.0458577
0.05375 0.63 0.00625 0.0457634
0.05625 0.63 0.00625 0.0456326
0.05875 0.63 0.00625 0.0455002
0.06125 0.63 0.00625 0.04536
0.06375 0.63 0.00625 0.0452021
0.06625 0.63 0.00625 0.0449998
0.06875 0.63 0.00625 0.0447774
0.07125 0.63 0.00625 0.0445811
0.07375 0.63 0.00625 0.0444249
0.07625 0.63 0.00625 0.0443224
0.07875 0.63 0.00625 0.0441901
0.08125 0.63 0.00625 0.0440299
0.08375 0.63 0.00625 0.0437339
0.08625 0.63 0.00625 0.0436574
0.08875 0.63 0.00625 0.0443942
0.09125 0.63 0.00625 0.0416142
0.09375 0.63 0.00625 0.0462312
0.09625 0.63 0.00625 0.0559291
0.09875 0.63 0.00625 0.0345311
0.00125 0.63 0.00875 0.0394327
0.00375 0.63 0.00875 0.0484515
0.00625 0.63 0.00875 0.0436046
0.00875 0.63 0.00875 0.0436126
0.01125 0.63 0.00875 0.0447391
0.01375 0.63 0.00875 0.044336
0.01625 0.63 0.00875 0.0444634
0.01875 0.63 0.00875 0.0444555
0.02125 0.63 0.00875 0.0444641
0.02375 0.63 0.00875 0.0444808
0.02625 0.63 0.00875 0.0444883
0.02875 0.63 0.00875 0.0445183
0.03125 0.63 0.00875 0.0445569
0.03375 0.63 0.00875 0.044607
0.03625 0.63 0.00875 0.0446799
0.03875 0.63 0.00875 0.0447498
0.04125 0.63 0.00875 0.0447911
0.04375 0.63 0.00875 0.0448009
0.04625 0.63 0.00875 0.0447751
0.04875 0.63 0.00875 0.0447337
0.05125 0.63 0.00875 0.0446659
0.05375 0.63 0.00875 0.0445823
0.05625 0.63 0.00875 0.0445044
0.05875 0.63 0.00875 0.0444374
0.06125 0.63 0.00875 0.0443822
0.06375 0.63 0.00875 0.0443386
0.06625 0.63 0.00875 0.0442853
0.06875 0.63 0.00875 0.0442516
0.07125 0.63 0.00875 0.0442467
0.07375 0.63 0.00875 0.0442864
0.07625 0.63 0.00875 0.0443769
0.07875 0.63 0.00875 0.0444703
0.08125 0.63 0.00875 0.0445992
0.08375 0.63 0.00875 0.0446532
0.08625 0.63 0.00875 0.0445565
0.08875 0.63 0.00875 0.0455076
0.09125 0.63 0.00875 0.0432571
0.09375 0.63 0.00875 0.0434608
0.09625 0.63 0.00875 0.0517557
0.09875 0.63 0.00875 0.0371207
0.00125 0.63 0.01125 0.0394465
0.00375 0.63 0.01125 0.0480613
0.00625 0.63 0.01125 0.0431545
0.00875 0.63 0.01125 0.043406
0.01125 0.63 0.01125 0.0446115
0.01375 0.63 0.01125 0.044197
0.01625 0.63 0.01125 0.0443508
0.01875 0.63 0.01125 0.0443555
0.02125 0.63 0.01125 0.044356
0.02375 0.63 0.01125 0.0443914
0.02625 0.63 0.01125 0.0444597
0.02875 0.63 0.01125 0.0445375
0.03125 0.63 0.01125 0.0446129
0.03375 0.63 0.01125 0.0446807
0.03625 0.63 0.01125 0.0447511
0.03875 0.63 0.01125 0.0448097
0.04125 0.63 0.01125 0.0448419
0.04375 0.63 0.01125 0.0448494
0.04625 0.63 0.01125 0.0448301
0.04875 0.63 0.01125 0.0447791
0.05125 0.63 0.01125 0.0447081
0.05375 0.63 0.01125 0.0446362
0.05625 0.63 0.01125 0.0445656
0.05875 0.63 0.01125 0.0444939
0.06125 0.63 0.01125 0.0444354
0.06375 0.63 0.01125 0.0443937
0.06625 0.63 0.01125 0.0443554
0.06875 0.63 0.01125 0.0443409
0.07125 0.63 0.01125 0.0443332
0.07375 0.63 0.01125 0.0443515
0.07625 0.63 0.01125 0.0444118
0.07875 0.63 0.01125 0.0444901
0.08125 0.63 0.01125 0.0446191
0.08375 0.63 0.01125 0.0446557
0.08625 0.63 0.01125 0.0445255
0.08875 0.63 0.01125 0.0454693
0.09125 0.63 0.01125 0.0431754
0.09375 0.63 0.01125 0.0434818
0.09625 0.63 0.01125 0.0515611
0.09875 0.63 0.01125 0.0371318
0.00125 0.63 0.01375 0.0366387
0.00375 0.63 0.01375 0.0529446
0.00625 0.63 0.01375 0.0466372
0.00875 0.63 0.01375 0.042922
0.01125 0.63 0.01375 0.044575
0.01375 0.63 0.01375 0.044194
0.01625 0.63 0.01375 0.0443503
0.01875 0.63 0.01375 0.0444909
0.02125 0.63 0.01375 0.0446609
0.02375 0.63 0.01375 0.0448697
0.02625 0.63 0.01375 0.0450847
0.02875 0.63 0.01375 0.0452691
0.03125 0.63 0.01375 0.0454371
0.03375 0.63 0.01375 0.0455836
0.03625 0.63 0.01375 0.0457513
0.03875 0.63 0.01375 0.0458872
0.04125 0.63 0.01375 0.045971
0.04375 0.63 0.01375 0.0460208
0.04625 0.63 0.01375 0.0459972
0.04875 0.63 0.01375 0.0458937
0.05125 0.63 0.01375 0.0457602
0.05375 0.63 0.01375 0.0456329
0.05625 0.63 0.01375 0.0454833
0.05875 0.63 0.01375 0.0453256
0.06125 0.63 0.01375 0.0451685
0.06375 0.63 0.01375 0.0450281
0.06625 0.63 0.01375 0.0448628
0.06875 0.63 0.01375 0.0446835
0.07125 0.63 0.01375 0.0445254
0.07375 0.63 0.01375 0.0443603
0.07625 0.63 0.01375 0.0441977
0.07875 0.63 0.01375 0.044059
0.08125 0.63 0.01375 0.0439356
0.08375 0.63 0.01375 0.0437112
0.08625 0.63 0.01375 0.0436629
0.08875 0.63 0.01375 0.0444473
0.09125 0.63 0.01375 0.0416784
0.09375 0.63 0.01375 0.0464839
0.09625 0.63 0.01375 0.0557587
0.09875 0.63 0.01375 0.0344599
0.00125 0.63 0.01625 0.0354085
0.00375 0.63 0.01625 0.0609143
0.00625 0.63 0.01625 0.0525388
0.00875 0.63 0.01625 0.0486561
0.01125 0.63 0.01625 0.0495397
0.01375 0.63 0.01625 0.048428
0.01625 0.63 0.01625 0.0476207
0.01875 0.63 0.01625 0.0468364
0.02125 0.63 0.01625 0.0460925
0.02375 0.63 0.01625 0.0453681
0.02625 0.63 0.01625 0.0446228
0.02875 0.63 0.01625 0.0439116
0.03125 0.63 0.01625 0.0432295
0.03375 0.63 0.01625 0.0426992
0.03625 0.63 0.01625 0.0423923
0.03875 0.63 0.01625 0.0422579
0.04125 0.63 0.01625 0.0421939
0.04375 0.63 0.01625 0.0421805
0.04625 0.63 0.01625 0.0421942
0.04875 0.63 0.01625 0.0422434
0.05125 0.63 0.01625 0.0423086
0.05375 0.63 0.01625 0.0423907
0.05625 0.63 0.01625 0.0424994
0.05875 0.63 0.01625 0.0426709
0.06125 0.63 0.01625 0.0428904
0.06375 0.63 0.01625 0.0431823
0.06625 0.63 0.01625 0.0435729
0.06875 0.63 0.01625 0.0440629
0.07125 0.63 0.01625 0.0447096
0.07375 0.63 0.01625 0.0455317
0.07625 0.63 0.01625 0.046523
0.07875 0.63 0.01625 0.0476747
0.08125 0.63 0.01625 0.0488723
0.08375 0.63 0.01625 0.0500776
0.08625 0.63 0.01625 0.0513475
0.08875 0.63 0.01625 0.0526281
0.09125 0.63 0.01625 0.0512865
0.09375 0.63 0.01625 0.056853
0.09625 0.63 0.01625 0.0691069
0.09875 0.63 0.01625 0.0320056
0.00125 0.63 0.01875 0.0407625
0.00375 0.63 0.01875 0.0356344
0.00625 0.63 0.01875 0.0365957
0.00875 0.63 0.01875 0.0392519
0.01125 0.63 0.01875 0.0396298
0.01375 0.63 0.01875 0.0407711
0.01625 0.63 0.01875 0.0416486
0.01875 0.63 0.01875 0.0424423
0.02125 0.63 0.01875 0.043211
0.02375 0.63 0.01875 0.0439146
0.02625 0.63 0.01875 0.0445319
0.02875 0.63 0.01875 0.0450939
0.03125 0.63 0.01875 0.0455919
0.03375 0.63 0.01875 0.0460238
0.03625 0.63 0.01875 0.0463318
0.03875 0.63 0.01875 0.0465478
0.04125 0.63 0.01875 0.0466734
0.04375 0.63 0.01875 0.0467165
0.04625 0.63 0.01875 0.0466948
0.04875 0.63 0.01875 0.0466212
0.05125 0.63 0.01875 0.0464773
0.05375 0.63 0.01875 0.0462688
0.05625 0.63 0.01875 0.0460315
0.05875 0.63 0.01875 0.0457706
0.06125 0.63 0.01875 0.0454663
0.06375 0.63 0.01875 0.045123
0.06625 0.63 0.01875 0.0447656
0.06875 0.63 0.01875 0.0443742
0.07125 0.63 0.01875 0.0439324
0.07375 0.63 0.01875 0.0433779
0.07625 0.63 0.01875 0.0427457
0.07875 0.63 0.01875 0.0419756
0.08125 0.63 0.01875 0.0410312
0.08375 0.63 0.01875 0.0400588
0.08625 0.63 0.01875 0.0388757
0.08875 0.63 0.01875 0.037504
0.09125 0.63 0.01875 0.0377363
0.09375 0.63 0.01875 0.0339669
0.09625 0.63 0.01875 0.0323415
0.09875 0.63 0.01875 0.0417906
