# alphaMean.water  FACE_DATA 320
#  x  y  z  alphaMean.water
0.00125 0.63 0.00125 0.958724
0.00375 0.63 0.00125 0.964166
0.00625 0.63 0.00125 0.962872
0.00875 0.63 0.00125 0.960594
0.01125 0.63 0.00125 0.960195
0.01375 0.63 0.00125 0.959249
0.01625 0.63 0.00125 0.958504
0.01875 0.63 0.00125 0.957814
0.02125 0.63 0.00125 0.957108
0.02375 0.63 0.00125 0.95643
0.02625 0.63 0.00125 0.95574
0.02875 0.63 0.00125 0.955122
0.03125 0.63 0.00125 0.954549
0.03375 0.63 0.00125 0.954086
0.03625 0.63 0.00125 0.953742
0.03875 0.63 0.00125 0.953403
0.04125 0.63 0.00125 0.953191
0.04375 0.63 0.00125 0.953085
0.04625 0.63 0.00125 0.953107
0.04875 0.63 0.00125 0.953259
0.05125 0.63 0.00125 0.95347
0.05375 0.63 0.00125 0.953731
0.05625 0.63 0.00125 0.953984
0.05875 0.63 0.00125 0.954254
0.06125 0.63 0.00125 0.954584
0.06375 0.63 0.00125 0.954962
0.06625 0.63 0.00125 0.955355
0.06875 0.63 0.00125 0.955783
0.07125 0.63 0.00125 0.956275
0.07375 0.63 0.00125 0.956884
0.07625 0.63 0.00125 0.957589
0.07875 0.63 0.00125 0.95834
0.08125 0.63 0.00125 0.959155
0.08375 0.63 0.00125 0.959933
0.08625 0.63 0.00125 0.96074
0.08875 0.63 0.00125 0.962037
0.09125 0.63 0.00125 0.961826
0.09375 0.63 0.00125 0.965077
0.09625 0.63 0.00125 0.966878
0.09875 0.63 0.00125 0.958078
0.00125 0.63 0.00375 0.964048
0.00375 0.63 0.00375 0.939346
0.00625 0.63 0.00375 0.947943
0.00875 0.63 0.00375 0.951165
0.01125 0.63 0.00375 0.950292
0.01375 0.63 0.00375 0.951389
0.01625 0.63 0.00375 0.952175
0.01875 0.63 0.00375 0.952988
0.02125 0.63 0.00375 0.953783
0.02375 0.63 0.00375 0.954501
0.02625 0.63 0.00375 0.955223
0.02875 0.63 0.00375 0.955939
0.03125 0.63 0.00375 0.956636
0.03375 0.63 0.00375 0.957208
0.03625 0.63 0.00375 0.957621
0.03875 0.63 0.00375 0.95788
0.04125 0.63 0.00375 0.957969
0.04375 0.63 0.00375 0.957945
0.04625 0.63 0.00375 0.95789
0.04875 0.63 0.00375 0.957836
0.05125 0.63 0.00375 0.957792
0.05375 0.63 0.00375 0.957697
0.05625 0.63 0.00375 0.957565
0.05875 0.63 0.00375 0.957417
0.06125 0.63 0.00375 0.957222
0.06375 0.63 0.00375 0.956906
0.06625 0.63 0.00375 0.956458
0.06875 0.63 0.00375 0.955925
0.07125 0.63 0.00375 0.955282
0.07375 0.63 0.00375 0.954472
0.07625 0.63 0.00375 0.953526
0.07875 0.63 0.00375 0.95247
0.08125 0.63 0.00375 0.95136
0.08375 0.63 0.00375 0.950316
0.08625 0.63 0.00375 0.949265
0.08875 0.63 0.00375 0.947879
0.09125 0.63 0.00375 0.949284
0.09375 0.63 0.00375 0.94422
0.09625 0.63 0.00375 0.932018
0.09875 0.63 0.00375 0.967423
0.00125 0.63 0.00625 0.962725
0.00375 0.63 0.00625 0.948331
0.00625 0.63 0.00625 0.954176
0.00875 0.63 0.00625 0.957007
0.01125 0.63 0.00625 0.955628
0.01375 0.63 0.00625 0.956028
0.01625 0.63 0.00625 0.955828
0.01875 0.63 0.00625 0.955658
0.02125 0.63 0.00625 0.955486
0.02375 0.63 0.00625 0.955269
0.02625 0.63 0.00625 0.955077
0.02875 0.63 0.00625 0.954881
0.03125 0.63 0.00625 0.954721
0.03375 0.63 0.00625 0.954586
0.03625 0.63 0.00625 0.954443
0.03875 0.63 0.00625 0.954305
0.04125 0.63 0.00625 0.954164
0.04375 0.63 0.00625 0.954067
0.04625 0.63 0.00625 0.954054
0.04875 0.63 0.00625 0.954079
0.05125 0.63 0.00625 0.954142
0.05375 0.63 0.00625 0.954237
0.05625 0.63 0.00625 0.954367
0.05875 0.63 0.00625 0.9545
0.06125 0.63 0.00625 0.95464
0.06375 0.63 0.00625 0.954798
0.06625 0.63 0.00625 0.955
0.06875 0.63 0.00625 0.955223
0.07125 0.63 0.00625 0.955419
0.07375 0.63 0.00625 0.955575
0.07625 0.63 0.00625 0.955678
0.07875 0.63 0.00625 0.95581
0.08125 0.63 0.00625 0.95597
0.08375 0.63 0.00625 0.956266
0.08625 0.63 0.00625 0.956343
0.08875 0.63 0.00625 0.955606
0.09125 0.63 0.00625 0.958386
0.09375 0.63 0.00625 0.953769
0.09625 0.63 0.00625 0.944071
0.09875 0.63 0.00625 0.965469
0.00125 0.63 0.00875 0.960567
0.00375 0.63 0.00875 0.951549
0.00625 0.63 0.00875 0.956395
0.00875 0.63 0.00875 0.956387
0.01125 0.63 0.00875 0.955261
0.01375 0.63 0.00875 0.955664
0.01625 0.63 0.00875 0.955537
0.01875 0.63 0.00875 0.955545
0.02125 0.63 0.00875 0.955536
0.02375 0.63 0.00875 0.955519
0.02625 0.63 0.00875 0.955512
0.02875 0.63 0.00875 0.955482
0.03125 0.63 0.00875 0.955443
0.03375 0.63 0.00875 0.955393
0.03625 0.63 0.00875 0.95532
0.03875 0.63 0.00875 0.95525
0.04125 0.63 0.00875 0.955209
0.04375 0.63 0.00875 0.955199
0.04625 0.63 0.00875 0.955225
0.04875 0.63 0.00875 0.955266
0.05125 0.63 0.00875 0.955334
0.05375 0.63 0.00875 0.955418
0.05625 0.63 0.00875 0.955496
0.05875 0.63 0.00875 0.955563
0.06125 0.63 0.00875 0.955618
0.06375 0.63 0.00875 0.955661
0.06625 0.63 0.00875 0.955715
0.06875 0.63 0.00875 0.955748
0.07125 0.63 0.00875 0.955753
0.07375 0.63 0.00875 0.955714
0.07625 0.63 0.00875 0.955623
0.07875 0.63 0.00875 0.95553
0.08125 0.63 0.00875 0.955401
0.08375 0.63 0.00875 0.955347
0.08625 0.63 0.00875 0.955444
0.08875 0.63 0.00875 0.954492
0.09125 0.63 0.00875 0.956743
0.09375 0.63 0.00875 0.956539
0.09625 0.63 0.00875 0.948244
0.09875 0.63 0.00875 0.962879
0.00125 0.63 0.01125 0.960553
0.00375 0.63 0.01125 0.951939
0.00625 0.63 0.01125 0.956846
0.00875 0.63 0.01125 0.956594
0.01125 0.63 0.01125 0.955389
0.01375 0.63 0.01125 0.955803
0.01625 0.63 0.01125 0.955649
0.01875 0.63 0.01125 0.955645
0.02125 0.63 0.01125 0.955644
0.02375 0.63 0.01125 0.955609
0.02625 0.63 0.01125 0.95554
0.02875 0.63 0.01125 0.955462
0.03125 0.63 0.01125 0.955387
0.03375 0.63 0.01125 0.955319
0.03625 0.63 0.01125 0.955249
0.03875 0.63 0.01125 0.95519
0.04125 0.63 0.01125 0.955158
0.04375 0.63 0.01125 0.955151
0.04625 0.63 0.01125 0.95517
0.04875 0.63 0.01125 0.955221
0.05125 0.63 0.01125 0.955292
0.05375 0.63 0.01125 0.955364
0.05625 0.63 0.01125 0.955434
0.05875 0.63 0.01125 0.955506
0.06125 0.63 0.01125 0.955565
0.06375 0.63 0.01125 0.955606
0.06625 0.63 0.01125 0.955645
0.06875 0.63 0.01125 0.955659
0.07125 0.63 0.01125 0.955667
0.07375 0.63 0.01125 0.955648
0.07625 0.63 0.01125 0.955588
0.07875 0.63 0.01125 0.95551
0.08125 0.63 0.01125 0.955381
0.08375 0.63 0.01125 0.955344
0.08625 0.63 0.01125 0.955474
0.08875 0.63 0.01125 0.954531
0.09125 0.63 0.01125 0.956825
0.09375 0.63 0.01125 0.956518
0.09625 0.63 0.01125 0.948439
0.09875 0.63 0.01125 0.962868
0.00125 0.63 0.01375 0.963361
0.00375 0.63 0.01375 0.947055
0.00625 0.63 0.01375 0.953363
0.00875 0.63 0.01375 0.957078
0.01125 0.63 0.01375 0.955425
0.01375 0.63 0.01375 0.955806
0.01625 0.63 0.01375 0.95565
0.01875 0.63 0.01375 0.955509
0.02125 0.63 0.01375 0.955339
0.02375 0.63 0.01375 0.95513
0.02625 0.63 0.01375 0.954915
0.02875 0.63 0.01375 0.954731
0.03125 0.63 0.01375 0.954563
0.03375 0.63 0.01375 0.954416
0.03625 0.63 0.01375 0.954249
0.03875 0.63 0.01375 0.954113
0.04125 0.63 0.01375 0.954029
0.04375 0.63 0.01375 0.953979
0.04625 0.63 0.01375 0.954003
0.04875 0.63 0.01375 0.954106
0.05125 0.63 0.01375 0.95424
0.05375 0.63 0.01375 0.954367
0.05625 0.63 0.01375 0.954517
0.05875 0.63 0.01375 0.954674
0.06125 0.63 0.01375 0.954832
0.06375 0.63 0.01375 0.954972
0.06625 0.63 0.01375 0.955137
0.06875 0.63 0.01375 0.955317
0.07125 0.63 0.01375 0.955475
0.07375 0.63 0.01375 0.95564
0.07625 0.63 0.01375 0.955802
0.07875 0.63 0.01375 0.955941
0.08125 0.63 0.01375 0.956064
0.08375 0.63 0.01375 0.956289
0.08625 0.63 0.01375 0.956337
0.08875 0.63 0.01375 0.955553
0.09125 0.63 0.01375 0.958322
0.09375 0.63 0.01375 0.953516
0.09625 0.63 0.01375 0.944241
0.09875 0.63 0.01375 0.96554
0.00125 0.63 0.01625 0.964591
0.00375 0.63 0.01625 0.939086
0.00625 0.63 0.01625 0.947461
0.00875 0.63 0.01625 0.951344
0.01125 0.63 0.01625 0.95046
0.01375 0.63 0.01625 0.951572
0.01625 0.63 0.01625 0.952379
0.01875 0.63 0.01625 0.953164
0.02125 0.63 0.01625 0.953908
0.02375 0.63 0.01625 0.954632
0.02625 0.63 0.01625 0.955377
0.02875 0.63 0.01625 0.956088
0.03125 0.63 0.01625 0.956771
0.03375 0.63 0.01625 0.957301
0.03625 0.63 0.01625 0.957608
0.03875 0.63 0.01625 0.957742
0.04125 0.63 0.01625 0.957806
0.04375 0.63 0.01625 0.957819
0.04625 0.63 0.01625 0.957806
0.04875 0.63 0.01625 0.957757
0.05125 0.63 0.01625 0.957691
0.05375 0.63 0.01625 0.957609
0.05625 0.63 0.01625 0.957501
0.05875 0.63 0.01625 0.957329
0.06125 0.63 0.01625 0.95711
0.06375 0.63 0.01625 0.956818
0.06625 0.63 0.01625 0.956427
0.06875 0.63 0.01625 0.955937
0.07125 0.63 0.01625 0.95529
0.07375 0.63 0.01625 0.954468
0.07625 0.63 0.01625 0.953477
0.07875 0.63 0.01625 0.952325
0.08125 0.63 0.01625 0.951128
0.08375 0.63 0.01625 0.949922
0.08625 0.63 0.01625 0.948653
0.08875 0.63 0.01625 0.947372
0.09125 0.63 0.01625 0.948714
0.09375 0.63 0.01625 0.943147
0.09625 0.63 0.01625 0.930893
0.09875 0.63 0.01625 0.967994
0.00125 0.63 0.01875 0.959237
0.00375 0.63 0.01875 0.964366
0.00625 0.63 0.01875 0.963404
0.00875 0.63 0.01875 0.960748
0.01125 0.63 0.01875 0.96037
0.01375 0.63 0.01875 0.959229
0.01625 0.63 0.01875 0.958351
0.01875 0.63 0.01875 0.957558
0.02125 0.63 0.01875 0.956789
0.02375 0.63 0.01875 0.956085
0.02625 0.63 0.01875 0.955468
0.02875 0.63 0.01875 0.954906
0.03125 0.63 0.01875 0.954408
0.03375 0.63 0.01875 0.953976
0.03625 0.63 0.01875 0.953668
0.03875 0.63 0.01875 0.953452
0.04125 0.63 0.01875 0.953327
0.04375 0.63 0.01875 0.953283
0.04625 0.63 0.01875 0.953305
0.04875 0.63 0.01875 0.953379
0.05125 0.63 0.01875 0.953523
0.05375 0.63 0.01875 0.953731
0.05625 0.63 0.01875 0.953968
0.05875 0.63 0.01875 0.954229
0.06125 0.63 0.01875 0.954534
0.06375 0.63 0.01875 0.954877
0.06625 0.63 0.01875 0.955234
0.06875 0.63 0.01875 0.955626
0.07125 0.63 0.01875 0.956068
0.07375 0.63 0.01875 0.956622
0.07625 0.63 0.01875 0.957254
0.07875 0.63 0.01875 0.958024
0.08125 0.63 0.01875 0.958969
0.08375 0.63 0.01875 0.959941
0.08625 0.63 0.01875 0.961124
0.08875 0.63 0.01875 0.962496
0.09125 0.63 0.01875 0.962264
0.09375 0.63 0.01875 0.966033
0.09625 0.63 0.01875 0.967658
0.09875 0.63 0.01875 0.958209
