# alphaMean.air  FACE_DATA 320
#  x  y  z  alphaMean.air
0.00125 0.08 0.00125 0.00636591
0.00375 0.08 0.00125 0.00717755
0.00625 0.08 0.00125 0.00732276
0.00875 0.08 0.00125 0.00688271
0.01125 0.08 0.00125 0.00582678
0.01375 0.08 0.00125 0.00527258
0.01625 0.08 0.00125 0.00572876
0.01875 0.08 0.00125 0.00809138
0.02125 0.08 0.00125 0.0121495
0.02375 0.08 0.00125 0.0179101
0.02625 0.08 0.00125 0.0251493
0.02875 0.08 0.00125 0.0341651
0.03125 0.08 0.00125 0.042683
0.03375 0.08 0.00125 0.0487745
0.03625 0.08 0.00125 0.0519357
0.03875 0.08 0.00125 0.0508068
0.04125 0.08 0.00125 0.0481141
0.04375 0.08 0.00125 0.0467113
0.04625 0.08 0.00125 0.0464377
0.04875 0.08 0.00125 0.0466722
0.05125 0.08 0.00125 0.0466912
0.05375 0.08 0.00125 0.0462595
0.05625 0.08 0.00125 0.0452099
0.05875 0.08 0.00125 0.0443288
0.06125 0.08 0.00125 0.043391
0.06375 0.08 0.00125 0.0424594
0.06625 0.08 0.00125 0.0402837
0.06875 0.08 0.00125 0.036159
0.07125 0.08 0.00125 0.0303758
0.07375 0.08 0.00125 0.0232372
0.07625 0.08 0.00125 0.0166694
0.07875 0.08 0.00125 0.0114996
0.08125 0.08 0.00125 0.00768969
0.08375 0.08 0.00125 0.00568552
0.08625 0.08 0.00125 0.00535941
0.08875 0.08 0.00125 0.00567324
0.09125 0.08 0.00125 0.006647
0.09375 0.08 0.00125 0.00681271
0.09625 0.08 0.00125 0.00642151
0.09875 0.08 0.00125 0.00497278
0.00125 0.08 0.00375 0.0096486
0.00375 0.08 0.00375 0.0200538
0.00625 0.08 0.00375 0.0181628
0.00875 0.08 0.00375 0.0147228
0.01125 0.08 0.00375 0.012783
0.01375 0.08 0.00375 0.0110717
0.01625 0.08 0.00375 0.0100314
0.01875 0.08 0.00375 0.0104746
0.02125 0.08 0.00375 0.0130538
0.02375 0.08 0.00375 0.0180484
0.02625 0.08 0.00375 0.0237676
0.02875 0.08 0.00375 0.0293019
0.03125 0.08 0.00375 0.033781
0.03375 0.08 0.00375 0.03677
0.03625 0.08 0.00375 0.0386591
0.03875 0.08 0.00375 0.0394241
0.04125 0.08 0.00375 0.0389858
0.04375 0.08 0.00375 0.0385986
0.04625 0.08 0.00375 0.0384496
0.04875 0.08 0.00375 0.0381789
0.05125 0.08 0.00375 0.0382665
0.05375 0.08 0.00375 0.0380093
0.05625 0.08 0.00375 0.0377924
0.05875 0.08 0.00375 0.036275
0.06125 0.08 0.00375 0.0344562
0.06375 0.08 0.00375 0.0328482
0.06625 0.08 0.00375 0.0307292
0.06875 0.08 0.00375 0.0278313
0.07125 0.08 0.00375 0.0238507
0.07375 0.08 0.00375 0.0192364
0.07625 0.08 0.00375 0.0149294
0.07875 0.08 0.00375 0.0115631
0.08125 0.08 0.00375 0.00944501
0.08375 0.08 0.00375 0.00886941
0.08625 0.08 0.00375 0.0104901
0.08875 0.08 0.00375 0.0135698
0.09125 0.08 0.00375 0.0173379
0.09375 0.08 0.00375 0.0211368
0.09625 0.08 0.00375 0.0229773
0.09875 0.08 0.00375 0.00923774
0.00125 0.08 0.00625 0.0104672
0.00375 0.08 0.00625 0.0197961
0.00625 0.08 0.00625 0.0150919
0.00875 0.08 0.00625 0.0121537
0.01125 0.08 0.00625 0.010747
0.01375 0.08 0.00625 0.00953039
0.01625 0.08 0.00625 0.0087998
0.01875 0.08 0.00625 0.00929642
0.02125 0.08 0.00625 0.0119729
0.02375 0.08 0.00625 0.0167113
0.02625 0.08 0.00625 0.0225467
0.02875 0.08 0.00625 0.0286158
0.03125 0.08 0.00625 0.0339524
0.03375 0.08 0.00625 0.0378438
0.03625 0.08 0.00625 0.0406177
0.03875 0.08 0.00625 0.0420368
0.04125 0.08 0.00625 0.0420381
0.04375 0.08 0.00625 0.0417008
0.04625 0.08 0.00625 0.0417789
0.04875 0.08 0.00625 0.0415574
0.05125 0.08 0.00625 0.0415687
0.05375 0.08 0.00625 0.0416879
0.05625 0.08 0.00625 0.0418631
0.05875 0.08 0.00625 0.040816
0.06125 0.08 0.00625 0.0386086
0.06375 0.08 0.00625 0.0363552
0.06625 0.08 0.00625 0.033596
0.06875 0.08 0.00625 0.0300041
0.07125 0.08 0.00625 0.0251403
0.07375 0.08 0.00625 0.0194721
0.07625 0.08 0.00625 0.0144209
0.07875 0.08 0.00625 0.0104499
0.08125 0.08 0.00625 0.00805943
0.08375 0.08 0.00625 0.00806509
0.08625 0.08 0.00625 0.00997796
0.08875 0.08 0.00625 0.0124954
0.09125 0.08 0.00625 0.0147729
0.09375 0.08 0.00625 0.0173397
0.09625 0.08 0.00625 0.021472
0.09875 0.08 0.00625 0.0109571
0.00125 0.08 0.00875 0.0108835
0.00375 0.08 0.00875 0.0181171
0.00625 0.08 0.00875 0.0119154
0.00875 0.08 0.00875 0.00902965
0.01125 0.08 0.00875 0.00785078
0.01375 0.08 0.00875 0.00687173
0.01625 0.08 0.00875 0.00665249
0.01875 0.08 0.00875 0.00812417
0.02125 0.08 0.00875 0.0114448
0.02375 0.08 0.00875 0.0167557
0.02625 0.08 0.00875 0.0232981
0.02875 0.08 0.00875 0.0299343
0.03125 0.08 0.00875 0.0361481
0.03375 0.08 0.00875 0.0413061
0.03625 0.08 0.00875 0.0449279
0.03875 0.08 0.00875 0.0469268
0.04125 0.08 0.00875 0.0471423
0.04375 0.08 0.00875 0.0469971
0.04625 0.08 0.00875 0.047267
0.04875 0.08 0.00875 0.047104
0.05125 0.08 0.00875 0.0470872
0.05375 0.08 0.00875 0.0474409
0.05625 0.08 0.00875 0.0480343
0.05875 0.08 0.00875 0.0472288
0.06125 0.08 0.00875 0.0449928
0.06375 0.08 0.00875 0.0424847
0.06625 0.08 0.00875 0.0391845
0.06875 0.08 0.00875 0.0344815
0.07125 0.08 0.00875 0.0285382
0.07375 0.08 0.00875 0.0214454
0.07625 0.08 0.00875 0.0152917
0.07875 0.08 0.00875 0.0104163
0.08125 0.08 0.00875 0.00727265
0.08375 0.08 0.00875 0.00709301
0.08625 0.08 0.00875 0.00842012
0.08875 0.08 0.00875 0.0104397
0.09125 0.08 0.00875 0.0114631
0.09375 0.08 0.00875 0.0137574
0.09625 0.08 0.00875 0.0177394
0.09875 0.08 0.00875 0.0113328
0.00125 0.08 0.01125 0.0114837
0.00375 0.08 0.01125 0.0187758
0.00625 0.08 0.01125 0.0121837
0.00875 0.08 0.01125 0.00906644
0.01125 0.08 0.01125 0.00754659
0.01375 0.08 0.01125 0.00649307
0.01625 0.08 0.01125 0.00623052
0.01875 0.08 0.01125 0.0075217
0.02125 0.08 0.01125 0.0107744
0.02375 0.08 0.01125 0.0159807
0.02625 0.08 0.01125 0.0226013
0.02875 0.08 0.01125 0.0287397
0.03125 0.08 0.01125 0.034635
0.03375 0.08 0.01125 0.0394934
0.03625 0.08 0.01125 0.0426386
0.03875 0.08 0.01125 0.0442816
0.04125 0.08 0.01125 0.044607
0.04375 0.08 0.01125 0.0445217
0.04625 0.08 0.01125 0.0450833
0.04875 0.08 0.01125 0.0456504
0.05125 0.08 0.01125 0.0461334
0.05375 0.08 0.01125 0.0469219
0.05625 0.08 0.01125 0.0475011
0.05875 0.08 0.01125 0.0467607
0.06125 0.08 0.01125 0.0447402
0.06375 0.08 0.01125 0.0424664
0.06625 0.08 0.01125 0.0396972
0.06875 0.08 0.01125 0.0351763
0.07125 0.08 0.01125 0.0293306
0.07375 0.08 0.01125 0.0223285
0.07625 0.08 0.01125 0.0158033
0.07875 0.08 0.01125 0.0110532
0.08125 0.08 0.01125 0.00827057
0.08375 0.08 0.01125 0.00770663
0.08625 0.08 0.01125 0.00873701
0.08875 0.08 0.01125 0.0105302
0.09125 0.08 0.01125 0.0116029
0.09375 0.08 0.01125 0.0134262
0.09625 0.08 0.01125 0.0167481
0.09875 0.08 0.01125 0.0117544
0.00125 0.08 0.01375 0.0116475
0.00375 0.08 0.01375 0.0213554
0.00625 0.08 0.01375 0.0154022
0.00875 0.08 0.01375 0.01158
0.01125 0.08 0.01375 0.00963338
0.01375 0.08 0.01375 0.00832222
0.01625 0.08 0.01375 0.0077313
0.01875 0.08 0.01375 0.00836454
0.02125 0.08 0.01375 0.0108192
0.02375 0.08 0.01375 0.0149485
0.02625 0.08 0.01375 0.0204971
0.02875 0.08 0.01375 0.0254199
0.03125 0.08 0.01375 0.029821
0.03375 0.08 0.01375 0.0336868
0.03625 0.08 0.01375 0.035904
0.03875 0.08 0.01375 0.0369924
0.04125 0.08 0.01375 0.0375473
0.04375 0.08 0.01375 0.0374511
0.04625 0.08 0.01375 0.038066
0.04875 0.08 0.01375 0.0392941
0.05125 0.08 0.01375 0.0407205
0.05375 0.08 0.01375 0.0417682
0.05625 0.08 0.01375 0.0419686
0.05875 0.08 0.01375 0.040936
0.06125 0.08 0.01375 0.0387708
0.06375 0.08 0.01375 0.0366202
0.06625 0.08 0.01375 0.0345685
0.06875 0.08 0.01375 0.0313209
0.07125 0.08 0.01375 0.0269342
0.07375 0.08 0.01375 0.0214924
0.07625 0.08 0.01375 0.0162591
0.07875 0.08 0.01375 0.0125834
0.08125 0.08 0.01375 0.0104068
0.08375 0.08 0.01375 0.0101718
0.08625 0.08 0.01375 0.0112861
0.08875 0.08 0.01375 0.013111
0.09125 0.08 0.01375 0.0144348
0.09375 0.08 0.01375 0.0164031
0.09625 0.08 0.01375 0.0198526
0.09875 0.08 0.01375 0.0120275
0.00125 0.08 0.01625 0.00986608
0.00375 0.08 0.01625 0.0228046
0.00625 0.08 0.01625 0.0196473
0.00875 0.08 0.01625 0.0150958
0.01125 0.08 0.01625 0.0119994
0.01375 0.08 0.01625 0.0102428
0.01625 0.08 0.01625 0.00949379
0.01875 0.08 0.01625 0.0101615
0.02125 0.08 0.01625 0.012173
0.02375 0.08 0.01625 0.0149522
0.02625 0.08 0.01625 0.0193289
0.02875 0.08 0.01625 0.0235251
0.03125 0.08 0.01625 0.0268926
0.03375 0.08 0.01625 0.0298111
0.03625 0.08 0.01625 0.0314024
0.03875 0.08 0.01625 0.0319517
0.04125 0.08 0.01625 0.0321803
0.04375 0.08 0.01625 0.0321813
0.04625 0.08 0.01625 0.0330125
0.04875 0.08 0.01625 0.0348373
0.05125 0.08 0.01625 0.0373662
0.05375 0.08 0.01625 0.0392391
0.05625 0.08 0.01625 0.0394405
0.05875 0.08 0.01625 0.0379609
0.06125 0.08 0.01625 0.0355088
0.06375 0.08 0.01625 0.0336735
0.06625 0.08 0.01625 0.0322065
0.06875 0.08 0.01625 0.0301613
0.07125 0.08 0.01625 0.0275473
0.07375 0.08 0.01625 0.0235522
0.07625 0.08 0.01625 0.0192887
0.07875 0.08 0.01625 0.0164079
0.08125 0.08 0.01625 0.0149763
0.08375 0.08 0.01625 0.0148112
0.08625 0.08 0.01625 0.0158684
0.08875 0.08 0.01625 0.0175802
0.09125 0.08 0.01625 0.019849
0.09375 0.08 0.01625 0.0229123
0.09625 0.08 0.01625 0.0230596
0.09875 0.08 0.01625 0.0108663
0.00125 0.08 0.01875 0.004938
0.00375 0.08 0.01875 0.00699226
0.00625 0.08 0.01875 0.00760236
0.00875 0.08 0.01875 0.00716294
0.01125 0.08 0.01875 0.00668569
0.01375 0.08 0.01875 0.00632039
0.01625 0.08 0.01875 0.00699073
0.01875 0.08 0.01875 0.00910363
0.02125 0.08 0.01875 0.0123775
0.02375 0.08 0.01875 0.0167434
0.02625 0.08 0.01875 0.0216574
0.02875 0.08 0.01875 0.0265122
0.03125 0.08 0.01875 0.0313432
0.03375 0.08 0.01875 0.0357292
0.03625 0.08 0.01875 0.0379089
0.03875 0.08 0.01875 0.038331
0.04125 0.08 0.01875 0.0375301
0.04375 0.08 0.01875 0.0359691
0.04625 0.08 0.01875 0.0360983
0.04875 0.08 0.01875 0.0380628
0.05125 0.08 0.01875 0.0410275
0.05375 0.08 0.01875 0.0445447
0.05625 0.08 0.01875 0.0467793
0.05875 0.08 0.01875 0.0473515
0.06125 0.08 0.01875 0.0464403
0.06375 0.08 0.01875 0.044309
0.06625 0.08 0.01875 0.0414293
0.06875 0.08 0.01875 0.0373863
0.07125 0.08 0.01875 0.0325115
0.07375 0.08 0.01875 0.0269841
0.07625 0.08 0.01875 0.0210476
0.07875 0.08 0.01875 0.0158304
0.08125 0.08 0.01875 0.0117045
0.08375 0.08 0.01875 0.00901861
0.08625 0.08 0.01875 0.00803408
0.08875 0.08 0.01875 0.00763671
0.09125 0.08 0.01875 0.00764329
0.09375 0.08 0.01875 0.00790694
0.09625 0.08 0.01875 0.0074544
0.09875 0.08 0.01875 0.0059981
