# UMean.water  FACE_DATA 320
#  x  y  z  UMean.water_x  UMean.water_y  UMean.water_z  
0.00125 0.08 0.00125 0.00701688 -0.156186 -0.00298588
0.00375 0.08 0.00125 0.0130244 -0.152597 -0.000771663
0.00625 0.08 0.00125 0.0188694 -0.13654 0.000275074
0.00875 0.08 0.00125 0.0208372 -0.120685 0.00117591
0.01125 0.08 0.00125 0.0223042 -0.104065 0.00155796
0.01375 0.08 0.00125 0.022177 -0.0856265 0.00176861
0.01625 0.08 0.00125 0.0212994 -0.0654773 0.00177805
0.01875 0.08 0.00125 0.0199325 -0.0432967 0.00163938
0.02125 0.08 0.00125 0.0185419 -0.0183855 0.00137613
0.02375 0.08 0.00125 0.0173737 0.00736708 0.00111643
0.02625 0.08 0.00125 0.0157971 0.0324644 0.000917648
0.02875 0.08 0.00125 0.0141701 0.0557512 0.000717445
0.03125 0.08 0.00125 0.0127273 0.0762597 0.000602657
0.03375 0.08 0.00125 0.0113762 0.0920075 0.00045945
0.03625 0.08 0.00125 0.00927539 0.102177 0.000256515
0.03875 0.08 0.00125 0.00702829 0.10845 -9.1088e-05
0.04125 0.08 0.00125 0.0053855 0.11269 -0.000506907
0.04375 0.08 0.00125 0.00410618 0.116068 -0.000866029
0.04625 0.08 0.00125 0.00252265 0.118419 -0.00112914
0.04875 0.08 0.00125 0.00124463 0.118965 -0.00123498
0.05125 0.08 0.00125 -0.000180229 0.118434 -0.00106003
0.05375 0.08 0.00125 -0.00214767 0.117121 -0.000706322
0.05625 0.08 0.00125 -0.00442446 0.114072 -0.000357809
0.05875 0.08 0.00125 -0.00700005 0.107709 7.89566e-05
0.06125 0.08 0.00125 -0.00995939 0.0980609 0.000292311
0.06375 0.08 0.00125 -0.013139 0.0872029 0.000271454
0.06625 0.08 0.00125 -0.0161344 0.073843 0.000272296
0.06875 0.08 0.00125 -0.0180325 0.0568841 0.000283728
0.07125 0.08 0.00125 -0.0183061 0.0376384 0.000289975
0.07375 0.08 0.00125 -0.0190365 0.0177631 0.000365464
0.07625 0.08 0.00125 -0.0200287 -0.00233411 0.000558521
0.07875 0.08 0.00125 -0.0205022 -0.0242536 0.000807074
0.08125 0.08 0.00125 -0.0207898 -0.0484136 0.000758601
0.08375 0.08 0.00125 -0.0206559 -0.0718992 0.000759604
0.08625 0.08 0.00125 -0.0196215 -0.0938265 0.000913605
0.08875 0.08 0.00125 -0.0182638 -0.113005 0.000936023
0.09125 0.08 0.00125 -0.0164451 -0.127931 0.000621829
0.09375 0.08 0.00125 -0.0140889 -0.140558 7.5398e-05
0.09625 0.08 0.00125 -0.00913492 -0.152421 0.00017482
0.09875 0.08 0.00125 -0.00481747 -0.15668 -0.000912295
0.00125 0.08 0.00375 0.0045366 -0.15441 -0.00538416
0.00375 0.08 0.00375 0.0104305 -0.144389 -0.000764995
0.00625 0.08 0.00375 0.0153787 -0.129377 0.00130584
0.00875 0.08 0.00375 0.0179335 -0.115613 0.00275294
0.01125 0.08 0.00375 0.0199665 -0.100239 0.00330734
0.01375 0.08 0.00375 0.020864 -0.0816513 0.00350676
0.01625 0.08 0.00375 0.0208881 -0.0613718 0.00337537
0.01875 0.08 0.00375 0.020378 -0.0388658 0.00319235
0.02125 0.08 0.00375 0.0193852 -0.0141668 0.00307733
0.02375 0.08 0.00375 0.0182216 0.010706 0.00272526
0.02625 0.08 0.00375 0.0167266 0.0343774 0.00226428
0.02875 0.08 0.00375 0.0154766 0.056577 0.00190724
0.03125 0.08 0.00375 0.0145198 0.0763235 0.00165146
0.03375 0.08 0.00375 0.0131049 0.0915051 0.00126488
0.03625 0.08 0.00375 0.0111123 0.10237 0.000723036
0.03875 0.08 0.00375 0.00914678 0.110377 7.27088e-05
0.04125 0.08 0.00375 0.00746744 0.116239 -0.000542326
0.04375 0.08 0.00375 0.00575241 0.120543 -0.00116855
0.04625 0.08 0.00375 0.00380269 0.123404 -0.00174352
0.04875 0.08 0.00375 0.0021125 0.124526 -0.00192876
0.05125 0.08 0.00375 0.000424349 0.124169 -0.00169741
0.05375 0.08 0.00375 -0.00177179 0.122832 -0.00115234
0.05625 0.08 0.00375 -0.00431214 0.119644 -0.00051084
0.05875 0.08 0.00375 -0.00718014 0.112964 0.000200725
0.06125 0.08 0.00375 -0.0104156 0.102513 0.000623
0.06375 0.08 0.00375 -0.0139317 0.0904527 0.000663488
0.06625 0.08 0.00375 -0.0169671 0.0763134 0.000573684
0.06875 0.08 0.00375 -0.0186475 0.0592499 0.000520015
0.07125 0.08 0.00375 -0.0188075 0.0391362 0.000578138
0.07375 0.08 0.00375 -0.0193269 0.0181755 0.000694871
0.07625 0.08 0.00375 -0.0202206 -0.00222783 0.000917575
0.07875 0.08 0.00375 -0.0205812 -0.0233089 0.00130019
0.08125 0.08 0.00375 -0.0204724 -0.0457728 0.00141154
0.08375 0.08 0.00375 -0.0199928 -0.0685034 0.0014198
0.08625 0.08 0.00375 -0.0188286 -0.0898639 0.00157884
0.08875 0.08 0.00375 -0.0173021 -0.108158 0.00166826
0.09125 0.08 0.00375 -0.0152281 -0.122548 0.00147882
0.09375 0.08 0.00375 -0.0125532 -0.133924 0.000786593
0.09625 0.08 0.00375 -0.00832222 -0.144773 0.000416582
0.09875 0.08 0.00375 -0.00344767 -0.154441 -0.00228653
0.00125 0.08 0.00625 0.00278797 -0.150515 -0.00700406
0.00375 0.08 0.00625 0.00803462 -0.13923 -0.0021278
0.00625 0.08 0.00625 0.012605 -0.126587 0.000487834
0.00875 0.08 0.00625 0.0155032 -0.114155 0.00242865
0.01125 0.08 0.00625 0.0176983 -0.0990186 0.00358559
0.01375 0.08 0.00625 0.0193056 -0.0800718 0.00408119
0.01625 0.08 0.00625 0.0201638 -0.0586458 0.00404496
0.01875 0.08 0.00625 0.0202642 -0.0354117 0.00397826
0.02125 0.08 0.00625 0.0196861 -0.0112943 0.00402355
0.02375 0.08 0.00625 0.0186523 0.0123 0.00378522
0.02625 0.08 0.00625 0.0172877 0.0350619 0.00335207
0.02875 0.08 0.00625 0.0163709 0.0568701 0.00298695
0.03125 0.08 0.00625 0.0155086 0.0760741 0.00246964
0.03375 0.08 0.00625 0.0143057 0.0913174 0.00175977
0.03625 0.08 0.00625 0.0126429 0.10316 0.000979436
0.03875 0.08 0.00625 0.0108669 0.112332 0.000172436
0.04125 0.08 0.00625 0.00923625 0.119287 -0.000643367
0.04375 0.08 0.00625 0.0075073 0.124605 -0.00143859
0.04625 0.08 0.00625 0.0055118 0.128603 -0.00222809
0.04875 0.08 0.00625 0.00365344 0.131097 -0.00262835
0.05125 0.08 0.00625 0.00188451 0.131827 -0.00239645
0.05375 0.08 0.00625 -0.000263973 0.130879 -0.00169224
0.05625 0.08 0.00625 -0.00287464 0.127706 -0.000821108
0.05875 0.08 0.00625 -0.00592187 0.120917 2.94643e-05
0.06125 0.08 0.00625 -0.00929853 0.110283 0.000585523
0.06375 0.08 0.00625 -0.0129267 0.097744 0.000709171
0.06625 0.08 0.00625 -0.0160142 0.0832222 0.000701944
0.06875 0.08 0.00625 -0.0179112 0.0659184 0.000782682
0.07125 0.08 0.00625 -0.0183337 0.0453646 0.00102809
0.07375 0.08 0.00625 -0.0183438 0.0229393 0.00123864
0.07625 0.08 0.00625 -0.0187249 0.00112202 0.00118499
0.07875 0.08 0.00625 -0.01901 -0.0201514 0.00110244
0.08125 0.08 0.00625 -0.018868 -0.0418387 0.000885396
0.08375 0.08 0.00625 -0.0183362 -0.0639051 0.000774661
0.08625 0.08 0.00625 -0.01723 -0.0851833 0.000887425
0.08875 0.08 0.00625 -0.0156781 -0.103409 0.000799121
0.09125 0.08 0.00625 -0.0134227 -0.118181 0.00045959
0.09375 0.08 0.00625 -0.0104471 -0.129905 -0.000328762
0.09625 0.08 0.00625 -0.00656563 -0.139833 -0.00103778
0.09875 0.08 0.00625 -0.00223715 -0.149663 -0.0035904
0.00125 0.08 0.00875 0.0017428 -0.150031 -0.00555373
0.00375 0.08 0.00875 0.0063602 -0.138256 -0.00182981
0.00625 0.08 0.00875 0.0103777 -0.126707 0.000761163
0.00875 0.08 0.00875 0.0133435 -0.114244 0.00273057
0.01125 0.08 0.00875 0.0155946 -0.0988173 0.00381231
0.01375 0.08 0.00875 0.0173386 -0.0802618 0.0042118
0.01625 0.08 0.00875 0.0186659 -0.0589795 0.00400027
0.01875 0.08 0.00875 0.0194664 -0.0357602 0.00397799
0.02125 0.08 0.00875 0.0197253 -0.0120164 0.00426082
0.02375 0.08 0.00875 0.0194214 0.0111305 0.00429127
0.02625 0.08 0.00875 0.0186721 0.0335587 0.00400517
0.02875 0.08 0.00875 0.0179598 0.0547069 0.00358089
0.03125 0.08 0.00875 0.0171313 0.0734659 0.00301425
0.03375 0.08 0.00875 0.0160644 0.0891121 0.00234098
0.03625 0.08 0.00875 0.0145848 0.101714 0.00166167
0.03875 0.08 0.00875 0.0129646 0.11182 0.000948132
0.04125 0.08 0.00875 0.0114149 0.119701 0.00016943
0.04375 0.08 0.00875 0.00971888 0.126034 -0.000597413
0.04625 0.08 0.00875 0.00782356 0.131314 -0.00146666
0.04875 0.08 0.00875 0.00603129 0.135351 -0.00203476
0.05125 0.08 0.00875 0.00413564 0.137426 -0.00193063
0.05375 0.08 0.00875 0.0018541 0.137289 -0.00130433
0.05625 0.08 0.00875 -0.000919323 0.134585 -0.000488834
0.05875 0.08 0.00875 -0.00417407 0.128296 0.000302486
0.06125 0.08 0.00875 -0.00769139 0.118337 0.00089581
0.06375 0.08 0.00875 -0.0112865 0.105911 0.00111161
0.06625 0.08 0.00875 -0.0144108 0.0912515 0.00104079
0.06875 0.08 0.00875 -0.0165109 0.0736955 0.000935137
0.07125 0.08 0.00875 -0.017305 0.0528776 0.00107167
0.07375 0.08 0.00875 -0.0171994 0.0295603 0.00129782
0.07625 0.08 0.00875 -0.0169364 0.00621366 0.00125102
0.07875 0.08 0.00875 -0.0170569 -0.0160634 0.0010006
0.08125 0.08 0.00875 -0.0171086 -0.0378176 0.000623611
0.08375 0.08 0.00875 -0.0167641 -0.0595251 0.00041832
0.08625 0.08 0.00875 -0.0157697 -0.080403 0.000461224
0.08875 0.08 0.00875 -0.0140873 -0.0989557 0.000357553
0.09125 0.08 0.00875 -0.0116506 -0.114741 -2.28779e-05
0.09375 0.08 0.00875 -0.00856657 -0.127588 -0.000550869
0.09625 0.08 0.00875 -0.00525482 -0.137369 -0.00121845
0.09875 0.08 0.00875 -0.00165742 -0.14612 -0.00291172
0.00125 0.08 0.01125 0.00126811 -0.151345 -0.00436293
0.00375 0.08 0.01125 0.00546933 -0.138892 -0.00224523
0.00625 0.08 0.01125 0.00916917 -0.127865 2.21396e-05
0.00875 0.08 0.01125 0.0123121 -0.1152 0.00201631
0.01125 0.08 0.01125 0.0147759 -0.0995919 0.00327548
0.01375 0.08 0.01125 0.0166617 -0.0816459 0.00345851
0.01625 0.08 0.01125 0.0180548 -0.0613566 0.00299442
0.01875 0.08 0.01125 0.0190239 -0.0387447 0.00305906
0.02125 0.08 0.01125 0.0197542 -0.0153424 0.00361711
0.02375 0.08 0.01125 0.020151 0.00739475 0.00397706
0.02625 0.08 0.01125 0.0201672 0.0290878 0.00389183
0.02875 0.08 0.01125 0.0198347 0.0491263 0.00351236
0.03125 0.08 0.01125 0.0191238 0.0671957 0.00295599
0.03375 0.08 0.01125 0.0180635 0.0829064 0.00241306
0.03625 0.08 0.01125 0.0166561 0.0958433 0.00202249
0.03875 0.08 0.01125 0.0151546 0.106298 0.00157316
0.04125 0.08 0.01125 0.0137635 0.114756 0.000968229
0.04375 0.08 0.01125 0.0122467 0.12192 0.000321803
0.04625 0.08 0.01125 0.0106624 0.128413 -0.000488887
0.04875 0.08 0.01125 0.00918976 0.133654 -0.00111251
0.05125 0.08 0.01125 0.00727559 0.136775 -0.00121664
0.05375 0.08 0.01125 0.00478031 0.1377 -0.000859758
0.05625 0.08 0.01125 0.00173674 0.136026 -0.000271083
0.05875 0.08 0.01125 -0.00176082 0.13094 0.000299945
0.06125 0.08 0.01125 -0.00546061 0.122375 0.000857402
0.06375 0.08 0.01125 -0.00901363 0.111035 0.00121128
0.06625 0.08 0.01125 -0.0120403 0.0971019 0.001273
0.06875 0.08 0.01125 -0.014266 0.0798603 0.00111896
0.07125 0.08 0.01125 -0.0155322 0.0589603 0.00106753
0.07375 0.08 0.01125 -0.0157077 0.0352864 0.00117425
0.07625 0.08 0.01125 -0.0152774 0.0108831 0.00112088
0.07875 0.08 0.01125 -0.0155187 -0.0118017 0.000849621
0.08125 0.08 0.01125 -0.0157526 -0.0336529 0.00033054
0.08375 0.08 0.01125 -0.0155942 -0.0549809 -2.15326e-05
0.08625 0.08 0.01125 -0.014804 -0.0752234 -0.000165215
0.08875 0.08 0.01125 -0.0132773 -0.0937035 -0.000341493
0.09125 0.08 0.01125 -0.0110336 -0.109998 -0.000672147
0.09375 0.08 0.01125 -0.00811735 -0.12367 -0.000904419
0.09625 0.08 0.01125 -0.00479444 -0.134357 -0.00125766
0.09875 0.08 0.01125 -0.00144139 -0.142841 -0.00182274
0.00125 0.08 0.01375 0.00152881 -0.154926 -0.00159295
0.00375 0.08 0.01375 0.00544134 -0.141852 -0.00183236
0.00625 0.08 0.01375 0.00905904 -0.130125 -0.000150792
0.00875 0.08 0.01375 0.0122939 -0.116926 0.00153078
0.01125 0.08 0.01375 0.0151212 -0.101457 0.00243667
0.01375 0.08 0.01375 0.0173016 -0.0841246 0.00235124
0.01625 0.08 0.01375 0.0187563 -0.0645734 0.0018513
0.01875 0.08 0.01375 0.0196658 -0.0425707 0.00192349
0.02125 0.08 0.01375 0.0203207 -0.0196296 0.00248551
0.02375 0.08 0.01375 0.0207531 0.00220512 0.00302994
0.02625 0.08 0.01375 0.0210419 0.0224938 0.00313391
0.02875 0.08 0.01375 0.0209425 0.0412304 0.00296597
0.03125 0.08 0.01375 0.0201911 0.058449 0.00261512
0.03375 0.08 0.01375 0.0191563 0.0736937 0.00233584
0.03625 0.08 0.01375 0.0179092 0.0864082 0.00226356
0.03875 0.08 0.01375 0.0165893 0.0969357 0.00211388
0.04125 0.08 0.01375 0.0155156 0.105539 0.0017632
0.04375 0.08 0.01375 0.0144382 0.113113 0.0013346
0.04625 0.08 0.01375 0.0134106 0.120254 0.000743448
0.04875 0.08 0.01375 0.0123231 0.12612 0.000222827
0.05125 0.08 0.01375 0.0104363 0.12995 -2.42798e-05
0.05375 0.08 0.01375 0.00779143 0.132085 -2.86709e-05
0.05625 0.08 0.01375 0.00457228 0.131928 0.000189755
0.05875 0.08 0.01375 0.000836342 0.128332 0.000441932
0.06125 0.08 0.01375 -0.00312591 0.121187 0.000811505
0.06375 0.08 0.01375 -0.00683332 0.111295 0.00116666
0.06625 0.08 0.01375 -0.00980098 0.0987499 0.00134594
0.06875 0.08 0.01375 -0.012059 0.082529 0.00133204
0.07125 0.08 0.01375 -0.0136396 0.061971 0.00130925
0.07375 0.08 0.01375 -0.0143032 0.0385002 0.00134745
0.07625 0.08 0.01375 -0.0141389 0.0142822 0.00104704
0.07875 0.08 0.01375 -0.0144577 -0.00840631 0.000654594
0.08125 0.08 0.01375 -0.0147177 -0.030359 0.000118338
0.08375 0.08 0.01375 -0.0146132 -0.0515988 -0.000174725
0.08625 0.08 0.01375 -0.0140014 -0.0714877 -0.000283005
0.08875 0.08 0.01375 -0.0127103 -0.0894669 -0.000425192
0.09125 0.08 0.01375 -0.0108721 -0.105434 -0.000700098
0.09375 0.08 0.01375 -0.00851529 -0.119301 -0.000888314
0.09625 0.08 0.01375 -0.00519019 -0.1316 -0.000899535
0.09875 0.08 0.01375 -0.00160073 -0.14114 -0.000217377
0.00125 0.08 0.01625 0.00270641 -0.162204 -0.000130573
0.00375 0.08 0.01625 0.00661861 -0.150014 -0.00190298
0.00625 0.08 0.01625 0.0103268 -0.136355 -0.000934275
0.00875 0.08 0.01625 0.013472 -0.121833 -2.58597e-05
0.01125 0.08 0.01625 0.0162663 -0.105995 0.000397633
0.01375 0.08 0.01625 0.018357 -0.0884375 0.000230505
0.01625 0.08 0.01625 0.0197787 -0.068683 6.96888e-05
0.01875 0.08 0.01625 0.0207445 -0.0470002 0.000471638
0.02125 0.08 0.01625 0.0213895 -0.0246933 0.000970953
0.02375 0.08 0.01625 0.0216468 -0.0033039 0.00129116
0.02625 0.08 0.01625 0.0215377 0.0163559 0.00133291
0.02875 0.08 0.01625 0.0209813 0.0343919 0.00132785
0.03125 0.08 0.01625 0.0199188 0.0506873 0.00135664
0.03375 0.08 0.01625 0.0187392 0.065241 0.00141445
0.03625 0.08 0.01625 0.0175618 0.077262 0.00156466
0.03875 0.08 0.01625 0.0164898 0.0873735 0.00163192
0.04125 0.08 0.01625 0.015839 0.0957561 0.00150822
0.04375 0.08 0.01625 0.0154462 0.103134 0.00131774
0.04625 0.08 0.01625 0.015131 0.11029 0.000981569
0.04875 0.08 0.01625 0.0143744 0.116322 0.00064063
0.05125 0.08 0.01625 0.0125746 0.120599 0.000364726
0.05375 0.08 0.01625 0.0100055 0.123789 0.000137308
0.05625 0.08 0.01625 0.00690553 0.125279 2.80444e-05
0.05875 0.08 0.01625 0.00319538 0.123302 -8.86387e-06
0.06125 0.08 0.01625 -0.00101221 0.117579 0.000165681
0.06375 0.08 0.01625 -0.00504547 0.109092 0.000482504
0.06625 0.08 0.01625 -0.00802567 0.097948 0.000798024
0.06875 0.08 0.01625 -0.0102009 0.0829807 0.000964199
0.07125 0.08 0.01625 -0.0118864 0.0636458 0.00099029
0.07375 0.08 0.01625 -0.0129559 0.0411464 0.000889437
0.07625 0.08 0.01625 -0.0130032 0.0172082 0.000422757
0.07875 0.08 0.01625 -0.013356 -0.00577902 -0.00011334
0.08125 0.08 0.01625 -0.0138128 -0.0281404 -0.00068243
0.08375 0.08 0.01625 -0.0138949 -0.0497331 -0.000959582
0.08625 0.08 0.01625 -0.0134974 -0.0694913 -0.00104723
0.08875 0.08 0.01625 -0.012448 -0.0872561 -0.00112423
0.09125 0.08 0.01625 -0.010984 -0.103161 -0.00131664
0.09375 0.08 0.01625 -0.00907256 -0.117887 -0.00155761
0.09625 0.08 0.01625 -0.00610658 -0.131815 -0.00152065
0.09875 0.08 0.01625 -0.00225507 -0.141679 -0.000154432
0.00125 0.08 0.01875 0.00446931 -0.164403 0.000602268
0.00375 0.08 0.01875 0.00783611 -0.159273 -0.000703511
0.00625 0.08 0.01875 0.0118971 -0.144649 -0.000257275
0.00875 0.08 0.01875 0.0149266 -0.128475 2.82954e-05
0.01125 0.08 0.01875 0.0177302 -0.111664 -1.40939e-05
0.01375 0.08 0.01875 0.0193265 -0.0930645 -0.000410639
0.01625 0.08 0.01875 0.0201692 -0.0724747 -0.000575272
0.01875 0.08 0.01875 0.0207799 -0.0503864 -0.000208977
0.02125 0.08 0.01875 0.0214327 -0.0285651 0.00026963
0.02375 0.08 0.01875 0.021699 -0.00765897 0.000437519
0.02625 0.08 0.01875 0.0210968 0.0117908 0.000471174
0.02875 0.08 0.01875 0.019959 0.0297674 0.000480671
0.03125 0.08 0.01875 0.0184193 0.0461569 0.000491705
0.03375 0.08 0.01875 0.0166238 0.06096 0.000499644
0.03625 0.08 0.01875 0.0151281 0.0723334 0.000577439
0.03875 0.08 0.01875 0.0142302 0.0808096 0.000704177
0.04125 0.08 0.01875 0.013959 0.0879619 0.000743977
0.04375 0.08 0.01875 0.0138058 0.0942658 0.000855536
0.04625 0.08 0.01875 0.0141464 0.100592 0.000892288
0.04875 0.08 0.01875 0.0139388 0.105965 0.000718613
0.05125 0.08 0.01875 0.0125001 0.110008 0.000494599
0.05375 0.08 0.01875 0.0104446 0.114543 0.000299217
0.05625 0.08 0.01875 0.0078773 0.118257 0.000234167
0.05875 0.08 0.01875 0.00490306 0.118382 0.000140034
0.06125 0.08 0.01875 0.00102524 0.114233 6.62582e-05
0.06375 0.08 0.01875 -0.00341632 0.106247 0.000152118
0.06625 0.08 0.01875 -0.00653806 0.0956857 0.000381494
0.06875 0.08 0.01875 -0.00864119 0.0818683 0.000553988
0.07125 0.08 0.01875 -0.0102227 0.0641801 0.000567885
0.07375 0.08 0.01875 -0.0112517 0.0424974 0.000489765
0.07625 0.08 0.01875 -0.0114987 0.0181424 0.000335171
0.07875 0.08 0.01875 -0.0118869 -0.00596948 7.33209e-05
0.08125 0.08 0.01875 -0.0127794 -0.0294949 -0.000273713
0.08375 0.08 0.01875 -0.0135861 -0.0520593 -0.000384859
0.08625 0.08 0.01875 -0.0136346 -0.0722637 -0.00030238
0.08875 0.08 0.01875 -0.0126051 -0.0901907 -0.000170846
0.09125 0.08 0.01875 -0.0108695 -0.106442 -0.00021716
0.09375 0.08 0.01875 -0.00897122 -0.122091 -0.000487764
0.09625 0.08 0.01875 -0.00607366 -0.135894 -0.000506819
0.09875 0.08 0.01875 -0.00275433 -0.14066 3.49587e-05
