# UMean.air  FACE_DATA 320
#  x  y  z  UMean.air_x  UMean.air_y  UMean.air_z  
0.00125 0.08 0.00125 0.00887954 0.0793351 0.000176672
0.00375 0.08 0.00125 0.0159427 0.082703 0.00251321
0.00625 0.08 0.00125 0.0204833 0.0979822 0.00331354
0.00875 0.08 0.00125 0.0214867 0.113609 0.00373312
0.01125 0.08 0.00125 0.0221803 0.130423 0.00315504
0.01375 0.08 0.00125 0.0211352 0.14844 0.00229123
0.01625 0.08 0.00125 0.0198688 0.169167 0.00164729
0.01875 0.08 0.00125 0.0177886 0.190957 0.00103871
0.02125 0.08 0.00125 0.0162685 0.215296 4.13965e-05
0.02375 0.08 0.00125 0.0153049 0.239758 -0.000800083
0.02625 0.08 0.00125 0.0140054 0.264511 -0.00130257
0.02875 0.08 0.00125 0.0130952 0.287533 -0.00187785
0.03125 0.08 0.00125 0.012973 0.307283 -0.00256568
0.03375 0.08 0.00125 0.0130837 0.3222 -0.00360991
0.03625 0.08 0.00125 0.01207 0.331258 -0.00474794
0.03875 0.08 0.00125 0.00986857 0.337168 -0.00579272
0.04125 0.08 0.00125 0.00760178 0.341279 -0.00646614
0.04375 0.08 0.00125 0.00547853 0.344331 -0.00683581
0.04625 0.08 0.00125 0.0031427 0.346364 -0.00710879
0.04875 0.08 0.00125 0.00143084 0.346993 -0.00720468
0.05125 0.08 0.00125 -0.000218363 0.346219 -0.00701632
0.05375 0.08 0.00125 -0.00258921 0.344683 -0.00665866
0.05625 0.08 0.00125 -0.00530925 0.34178 -0.00630762
0.05875 0.08 0.00125 -0.00825698 0.335899 -0.00606085
0.06125 0.08 0.00125 -0.0122424 0.326538 -0.00570159
0.06375 0.08 0.00125 -0.0156089 0.315968 -0.00549487
0.06625 0.08 0.00125 -0.0175753 0.30331 -0.00513658
0.06875 0.08 0.00125 -0.0180932 0.288128 -0.00450261
0.07125 0.08 0.00125 -0.0166886 0.26998 -0.00343572
0.07375 0.08 0.00125 -0.0157361 0.250311 -0.00191367
0.07625 0.08 0.00125 -0.0160698 0.230365 -0.000347762
0.07875 0.08 0.00125 -0.0163595 0.208684 0.000922144
0.08125 0.08 0.00125 -0.0171102 0.184835 0.00152432
0.08375 0.08 0.00125 -0.018597 0.161023 0.00224476
0.08625 0.08 0.00125 -0.0186799 0.139186 0.00291429
0.08875 0.08 0.00125 -0.0184554 0.120372 0.00315383
0.09125 0.08 0.00125 -0.0169474 0.105299 0.00314654
0.09375 0.08 0.00125 -0.0151819 0.0926518 0.0027418
0.09625 0.08 0.00125 -0.0115552 0.0805623 0.00313555
0.09875 0.08 0.00125 -0.00624804 0.076522 0.00169352
0.00125 0.08 0.00375 0.00757705 0.081404 -0.00264329
0.00375 0.08 0.00375 0.0129656 0.0910218 0.00147181
0.00625 0.08 0.00375 0.0146494 0.105507 0.00370616
0.00875 0.08 0.00375 0.0162151 0.119068 0.00514746
0.01125 0.08 0.00375 0.0171327 0.134147 0.00486512
0.01375 0.08 0.00375 0.0162788 0.152265 0.00420779
0.01625 0.08 0.00375 0.0147994 0.172916 0.00336282
0.01875 0.08 0.00375 0.0132134 0.195 0.00269984
0.02125 0.08 0.00375 0.0121405 0.218886 0.00201592
0.02375 0.08 0.00375 0.0114415 0.243372 0.00134639
0.02625 0.08 0.00375 0.0107768 0.267128 0.000801358
0.02875 0.08 0.00375 0.0114247 0.289544 0.000263188
0.03125 0.08 0.00375 0.0128957 0.3087 -0.00055541
0.03375 0.08 0.00375 0.0135316 0.323175 -0.00195514
0.03625 0.08 0.00375 0.0125862 0.333011 -0.00372897
0.03875 0.08 0.00375 0.010665 0.340796 -0.0054595
0.04125 0.08 0.00375 0.00842551 0.346093 -0.0067619
0.04375 0.08 0.00375 0.00615493 0.349945 -0.00775508
0.04625 0.08 0.00375 0.00369992 0.352484 -0.00861999
0.04875 0.08 0.00375 0.00159292 0.353644 -0.00914994
0.05125 0.08 0.00375 -0.00017821 0.353248 -0.00911673
0.05375 0.08 0.00375 -0.0022812 0.351743 -0.00854637
0.05625 0.08 0.00375 -0.00443151 0.348485 -0.00778824
0.05875 0.08 0.00375 -0.00703282 0.342106 -0.00721995
0.06125 0.08 0.00375 -0.0106906 0.332143 -0.0065602
0.06375 0.08 0.00375 -0.0140769 0.320165 -0.00599077
0.06625 0.08 0.00375 -0.0162825 0.307117 -0.00522259
0.06875 0.08 0.00375 -0.0162895 0.291329 -0.0044486
0.07125 0.08 0.00375 -0.0143273 0.27265 -0.00312811
0.07375 0.08 0.00375 -0.0126337 0.25215 -0.0013013
0.07625 0.08 0.00375 -0.0124673 0.231874 0.000398364
0.07875 0.08 0.00375 -0.0125932 0.210237 0.00185581
0.08125 0.08 0.00375 -0.0129329 0.187867 0.0024663
0.08375 0.08 0.00375 -0.0135398 0.165367 0.00319552
0.08625 0.08 0.00375 -0.0138045 0.143337 0.00393491
0.08875 0.08 0.00375 -0.0139594 0.124854 0.00391811
0.09125 0.08 0.00375 -0.0135295 0.110563 0.00365436
0.09375 0.08 0.00375 -0.0115555 0.0989819 0.00276961
0.09625 0.08 0.00375 -0.0103539 0.0877347 0.00252631
0.09875 0.08 0.00375 -0.00598112 0.0781417 0.000391319
0.00125 0.08 0.00625 0.00552646 0.0853496 -0.00663203
0.00375 0.08 0.00625 0.0105016 0.0954924 -0.00246558
0.00625 0.08 0.00625 0.0123778 0.107999 0.000549477
0.00875 0.08 0.00625 0.0143453 0.119755 0.00291463
0.01125 0.08 0.00625 0.0148852 0.134762 0.00404293
0.01375 0.08 0.00625 0.0145508 0.153624 0.00467081
0.01625 0.08 0.00625 0.0136915 0.17478 0.00441949
0.01875 0.08 0.00625 0.0130397 0.197871 0.00427779
0.02125 0.08 0.00625 0.012494 0.221743 0.00474899
0.02375 0.08 0.00625 0.0118935 0.245245 0.00505794
0.02625 0.08 0.00625 0.0114368 0.268161 0.0050062
0.02875 0.08 0.00625 0.0122136 0.290112 0.0049045
0.03125 0.08 0.00625 0.0134719 0.308515 0.00434461
0.03375 0.08 0.00625 0.0139364 0.322969 0.00321868
0.03625 0.08 0.00625 0.0130727 0.334481 0.00179748
0.03875 0.08 0.00625 0.0113657 0.343343 0.000200763
0.04125 0.08 0.00625 0.00917361 0.349671 -0.00121133
0.04375 0.08 0.00625 0.00693166 0.354406 -0.00251361
0.04625 0.08 0.00625 0.0046396 0.358121 -0.00387199
0.04875 0.08 0.00625 0.00270737 0.360512 -0.00474744
0.05125 0.08 0.00625 0.00102659 0.361214 -0.00492387
0.05375 0.08 0.00625 -0.000682302 0.360025 -0.00441812
0.05625 0.08 0.00625 -0.00274077 0.356642 -0.00353579
0.05875 0.08 0.00625 -0.00535868 0.349876 -0.00277042
0.06125 0.08 0.00625 -0.00894083 0.339753 -0.00239156
0.06375 0.08 0.00625 -0.0122335 0.32771 -0.00206261
0.06625 0.08 0.00625 -0.0144071 0.314347 -0.0017421
0.06875 0.08 0.00625 -0.0146276 0.298836 -0.00127153
0.07125 0.08 0.00625 -0.0129648 0.279298 -0.00087323
0.07375 0.08 0.00625 -0.0109396 0.257116 -0.000377849
0.07625 0.08 0.00625 -0.0104562 0.2355 8.22058e-05
0.07875 0.08 0.00625 -0.0108925 0.213637 0.000478839
0.08125 0.08 0.00625 -0.0113617 0.191879 0.00027396
0.08375 0.08 0.00625 -0.0117514 0.170393 0.000225409
0.08625 0.08 0.00625 -0.012118 0.148925 0.000422183
0.08875 0.08 0.00625 -0.0124676 0.130173 5.03207e-05
0.09125 0.08 0.00625 -0.011734 0.11517 -0.000432646
0.09375 0.08 0.00625 -0.00932373 0.103001 -0.00135348
0.09625 0.08 0.00625 -0.00829946 0.0925417 -0.00211455
0.09875 0.08 0.00625 -0.0045587 0.0830833 -0.00342618
0.00125 0.08 0.00875 0.00458196 0.0844774 -0.00524665
0.00375 0.08 0.00875 0.00886781 0.0956766 -0.00145196
0.00625 0.08 0.00875 0.0101159 0.10718 0.0012705
0.00875 0.08 0.00875 0.0122647 0.119593 0.00331292
0.01125 0.08 0.00875 0.0127936 0.13473 0.00435345
0.01375 0.08 0.00875 0.0125904 0.153357 0.00495066
0.01625 0.08 0.00875 0.0123253 0.174711 0.00496518
0.01875 0.08 0.00875 0.0124853 0.197917 0.0050829
0.02125 0.08 0.00875 0.0128516 0.221468 0.00580595
0.02375 0.08 0.00875 0.013027 0.244401 0.00632284
0.02625 0.08 0.00875 0.0130008 0.266648 0.00661721
0.02875 0.08 0.00875 0.0136358 0.287962 0.00676156
0.03125 0.08 0.00875 0.0146935 0.305984 0.00626604
0.03375 0.08 0.00875 0.0150763 0.320646 0.00507559
0.03625 0.08 0.00875 0.0142639 0.333038 0.00383116
0.03875 0.08 0.00875 0.0127044 0.342766 0.00265341
0.04125 0.08 0.00875 0.0106246 0.349894 0.00155003
0.04375 0.08 0.00875 0.00837291 0.356 0.00036265
0.04625 0.08 0.00875 0.00629063 0.361107 -0.00113159
0.04875 0.08 0.00875 0.00457065 0.364952 -0.00209004
0.05125 0.08 0.00875 0.00296454 0.366829 -0.00232341
0.05375 0.08 0.00875 0.00118119 0.36634 -0.00206055
0.05625 0.08 0.00875 -0.000895652 0.363286 -0.0014766
0.05875 0.08 0.00875 -0.00378752 0.356784 -0.00100477
0.06125 0.08 0.00875 -0.00731623 0.347626 -0.000847694
0.06375 0.08 0.00875 -0.0103102 0.336273 -0.000762123
0.06625 0.08 0.00875 -0.0123398 0.322388 -0.000856734
0.06875 0.08 0.00875 -0.0127519 0.305669 -0.000824535
0.07125 0.08 0.00875 -0.0114114 0.285926 -0.000699419
0.07375 0.08 0.00875 -0.00936927 0.263407 -0.000664592
0.07625 0.08 0.00875 -0.00834106 0.240657 -0.000584064
0.07875 0.08 0.00875 -0.0085408 0.21769 -0.000556648
0.08125 0.08 0.00875 -0.00928599 0.195784 -0.000777014
0.08375 0.08 0.00875 -0.0102292 0.174159 -0.000945679
0.08625 0.08 0.00875 -0.0108015 0.153037 -0.000920133
0.08875 0.08 0.00875 -0.0107776 0.134518 -0.00112075
0.09125 0.08 0.00875 -0.0096962 0.118839 -0.00145878
0.09375 0.08 0.00875 -0.00737081 0.105945 -0.00210601
0.09625 0.08 0.00875 -0.00668814 0.0957213 -0.00252944
0.09875 0.08 0.00875 -0.00369108 0.0867804 -0.00354461
0.00125 0.08 0.01125 0.00425344 0.0825598 -0.00449452
0.00375 0.08 0.01125 0.00805745 0.0942195 -0.00203379
0.00625 0.08 0.01125 0.00876973 0.105687 4.32439e-05
0.00875 0.08 0.01125 0.0113186 0.118736 0.00186932
0.01125 0.08 0.01125 0.0124228 0.133837 0.00323507
0.01375 0.08 0.01125 0.0122913 0.151888 0.00364235
0.01625 0.08 0.01125 0.0120751 0.172164 0.00375558
0.01875 0.08 0.01125 0.0123774 0.194738 0.00435364
0.02125 0.08 0.01125 0.0133467 0.218076 0.00555536
0.02375 0.08 0.01125 0.0143069 0.240361 0.00640491
0.02625 0.08 0.01125 0.0149989 0.262196 0.0069839
0.02875 0.08 0.01125 0.0157538 0.282169 0.00728383
0.03125 0.08 0.01125 0.016488 0.299645 0.00706824
0.03375 0.08 0.01125 0.0165853 0.314568 0.00621484
0.03625 0.08 0.01125 0.0158821 0.327403 0.00545564
0.03875 0.08 0.01125 0.0145696 0.337389 0.00487625
0.04125 0.08 0.01125 0.0125204 0.345215 0.00418653
0.04375 0.08 0.01125 0.0103731 0.352259 0.00323211
0.04625 0.08 0.01125 0.00861291 0.358706 0.00196403
0.04875 0.08 0.01125 0.00718683 0.363683 0.00111426
0.05125 0.08 0.01125 0.00563705 0.366441 0.000802361
0.05375 0.08 0.01125 0.00368141 0.366822 0.000708908
0.05625 0.08 0.01125 0.00129021 0.364643 0.00082217
0.05875 0.08 0.01125 -0.00197495 0.359525 0.000964186
0.06125 0.08 0.01125 -0.005539 0.35161 0.000984377
0.06375 0.08 0.01125 -0.00839769 0.341073 0.000903334
0.06625 0.08 0.01125 -0.0101533 0.327956 0.000559045
0.06875 0.08 0.01125 -0.0106088 0.311571 0.000279612
0.07125 0.08 0.01125 -0.0095882 0.291646 2.3818e-05
0.07375 0.08 0.01125 -0.00802301 0.269394 -0.000313889
0.07625 0.08 0.01125 -0.00677423 0.245372 -0.000860229
0.07875 0.08 0.01125 -0.00693933 0.22178 -0.00120389
0.08125 0.08 0.01125 -0.00803726 0.199701 -0.00180379
0.08375 0.08 0.01125 -0.00931929 0.178209 -0.00220989
0.08625 0.08 0.01125 -0.0101646 0.158065 -0.00249228
0.08875 0.08 0.01125 -0.0100768 0.140005 -0.00277131
0.09125 0.08 0.01125 -0.00875879 0.123336 -0.00318235
0.09375 0.08 0.01125 -0.00653434 0.109513 -0.00331974
0.09625 0.08 0.01125 -0.00579019 0.0990917 -0.00305958
0.09875 0.08 0.01125 -0.00319347 0.0906011 -0.00304617
0.00125 0.08 0.01375 0.00464707 0.0789073 -0.00161173
0.00375 0.08 0.01375 0.00801532 0.0913781 -0.000632954
0.00625 0.08 0.01375 0.00833233 0.103062 0.000506363
0.00875 0.08 0.01375 0.0112363 0.116553 0.00177998
0.01125 0.08 0.01375 0.0131362 0.132218 0.00254634
0.01375 0.08 0.01375 0.0134055 0.149185 0.00253894
0.01625 0.08 0.01375 0.0132777 0.168461 0.00228429
0.01875 0.08 0.01375 0.0135472 0.190137 0.00290242
0.02125 0.08 0.01375 0.0144217 0.213032 0.00440821
0.02375 0.08 0.01375 0.0156323 0.234812 0.00556977
0.02625 0.08 0.01375 0.0168394 0.255951 0.00627541
0.02875 0.08 0.01375 0.0176557 0.274103 0.00668497
0.03125 0.08 0.01375 0.0178932 0.290703 0.00674993
0.03375 0.08 0.01375 0.0177367 0.305597 0.00644412
0.03625 0.08 0.01375 0.0171867 0.318139 0.00629483
0.03875 0.08 0.01375 0.0162207 0.328513 0.00636058
0.04125 0.08 0.01375 0.0144619 0.336407 0.00613408
0.04375 0.08 0.01375 0.012563 0.343832 0.00575934
0.04625 0.08 0.01375 0.0111729 0.351007 0.00511078
0.04875 0.08 0.01375 0.0100032 0.356512 0.00449953
0.05125 0.08 0.01375 0.00837558 0.359865 0.00407347
0.05375 0.08 0.01375 0.00604782 0.361368 0.00351219
0.05625 0.08 0.01375 0.00316836 0.360657 0.00305888
0.05875 0.08 0.01375 -0.000477884 0.35683 0.00282065
0.06125 0.08 0.01375 -0.00433438 0.350196 0.00268846
0.06375 0.08 0.01375 -0.00725613 0.341191 0.00231187
0.06625 0.08 0.01375 -0.00878204 0.3297 0.00184997
0.06875 0.08 0.01375 -0.00906898 0.314139 0.00158103
0.07125 0.08 0.01375 -0.00830468 0.294167 0.00118035
0.07375 0.08 0.01375 -0.00728666 0.272297 0.000588325
0.07625 0.08 0.01375 -0.00644119 0.248565 -0.000448509
0.07875 0.08 0.01375 -0.00646733 0.2249 -0.0011225
0.08125 0.08 0.01375 -0.00751052 0.202819 -0.0017896
0.08375 0.08 0.01375 -0.00869877 0.181161 -0.00204856
0.08625 0.08 0.01375 -0.00950372 0.161571 -0.00224067
0.08875 0.08 0.01375 -0.00965347 0.143593 -0.00224756
0.09125 0.08 0.01375 -0.00843975 0.127752 -0.00243875
0.09375 0.08 0.01375 -0.00646326 0.113662 -0.00229983
0.09625 0.08 0.01375 -0.00599785 0.101324 -0.00170174
0.09875 0.08 0.01375 -0.0033939 0.0919044 -0.00141853
0.00125 0.08 0.01625 0.00579952 0.0717667 -0.00223357
0.00375 0.08 0.01625 0.00895904 0.0834723 -0.00359688
0.00625 0.08 0.01625 0.00920595 0.0969246 -0.0028971
0.00875 0.08 0.01625 0.0120575 0.111634 -0.00187942
0.01125 0.08 0.01625 0.0141462 0.127112 -0.00100003
0.01375 0.08 0.01625 0.0148444 0.144573 -0.000643763
0.01625 0.08 0.01625 0.0147784 0.164478 -0.000500966
0.01875 0.08 0.01625 0.015488 0.185747 0.00040911
0.02125 0.08 0.01625 0.0162067 0.207942 0.0017715
0.02375 0.08 0.01625 0.0171015 0.229345 0.00321827
0.02625 0.08 0.01625 0.0180362 0.2497 0.00436321
0.02875 0.08 0.01625 0.0184609 0.267209 0.0057684
0.03125 0.08 0.01625 0.0182311 0.282588 0.00713332
0.03375 0.08 0.01625 0.0178418 0.296888 0.00793391
0.03625 0.08 0.01625 0.0174032 0.308436 0.00864596
0.03875 0.08 0.01625 0.0167848 0.319043 0.00921065
0.04125 0.08 0.01625 0.0156601 0.326533 0.00950692
0.04375 0.08 0.01625 0.0145116 0.333731 0.0100338
0.04625 0.08 0.01625 0.0135412 0.340922 0.0103651
0.04875 0.08 0.01625 0.0122619 0.346489 0.0101133
0.05125 0.08 0.01625 0.0102071 0.350157 0.00946244
0.05375 0.08 0.01625 0.00732209 0.352704 0.00869996
0.05625 0.08 0.01625 0.00426986 0.353764 0.0079355
0.05875 0.08 0.01625 0.000513286 0.351619 0.00750733
0.06125 0.08 0.01625 -0.0037692 0.346254 0.00765151
0.06375 0.08 0.01625 -0.00702214 0.33863 0.00732502
0.06625 0.08 0.01625 -0.00824785 0.328689 0.0064127
0.06875 0.08 0.01625 -0.00824779 0.31432 0.00529797
0.07125 0.08 0.01625 -0.00774739 0.295525 0.00380088
0.07375 0.08 0.01625 -0.00728617 0.274256 0.00189378
0.07625 0.08 0.01625 -0.00646558 0.250471 -3.60625e-05
0.07875 0.08 0.01625 -0.00604348 0.226904 -0.00129337
0.08125 0.08 0.01625 -0.00708758 0.204624 -0.00201915
0.08375 0.08 0.01625 -0.00814499 0.182913 -0.00235876
0.08625 0.08 0.01625 -0.00911416 0.163196 -0.00288942
0.08875 0.08 0.01625 -0.0093902 0.145444 -0.00359988
0.09125 0.08 0.01625 -0.00822341 0.129595 -0.00424937
0.09375 0.08 0.01625 -0.00675606 0.114626 -0.00418994
0.09625 0.08 0.01625 -0.00734689 0.100694 -0.00373671
0.09875 0.08 0.01625 -0.00481144 0.0911998 -0.00279362
0.00125 0.08 0.01875 0.00636144 0.0699379 -0.00191618
0.00375 0.08 0.01875 0.0107327 0.0752108 -0.00373157
0.00625 0.08 0.01875 0.0135189 0.0892147 -0.00314791
0.00875 0.08 0.01875 0.0163353 0.104869 -0.00249711
0.01125 0.08 0.01875 0.0190614 0.121301 -0.00172527
0.01375 0.08 0.01875 0.0199591 0.139653 -0.00139726
0.01625 0.08 0.01875 0.0200126 0.160604 -0.00127885
0.01875 0.08 0.01875 0.0204338 0.182072 -0.000589833
0.02125 0.08 0.01875 0.0210794 0.203585 0.000257976
0.02375 0.08 0.01875 0.0211412 0.224277 0.00114698
0.02625 0.08 0.01875 0.0204644 0.244307 0.00202045
0.02875 0.08 0.01875 0.0197872 0.261608 0.00318953
0.03125 0.08 0.01875 0.0185597 0.277048 0.00437916
0.03375 0.08 0.01875 0.0173843 0.291242 0.00515306
0.03625 0.08 0.01875 0.0168848 0.302265 0.0058793
0.03875 0.08 0.01875 0.0166712 0.311907 0.00642353
0.04125 0.08 0.01875 0.0158181 0.31764 0.00679908
0.04375 0.08 0.01875 0.0144813 0.323405 0.00747126
0.04625 0.08 0.01875 0.0139524 0.329841 0.00796513
0.04875 0.08 0.01875 0.0130691 0.33489 0.00787673
0.05125 0.08 0.01875 0.0101181 0.338519 0.0073775
0.05375 0.08 0.01875 0.00650589 0.342584 0.00701801
0.05625 0.08 0.01875 0.00346076 0.345927 0.00667071
0.05875 0.08 0.01875 0.000489531 0.345842 0.00649422
0.06125 0.08 0.01875 -0.00319022 0.341614 0.00659529
0.06375 0.08 0.01875 -0.0073777 0.334235 0.00647485
0.06625 0.08 0.01875 -0.00965895 0.324975 0.0058522
0.06875 0.08 0.01875 -0.0100825 0.311941 0.00489594
0.07125 0.08 0.01875 -0.00980438 0.294928 0.00345258
0.07375 0.08 0.01875 -0.0095669 0.274218 0.00171503
0.07625 0.08 0.01875 -0.00921794 0.250448 0.000362336
0.07875 0.08 0.01875 -0.00921196 0.226171 -0.000590621
0.08125 0.08 0.01875 -0.0108041 0.202856 -0.00111065
0.08375 0.08 0.01875 -0.0125588 0.179999 -0.00136081
0.08625 0.08 0.01875 -0.0134644 0.159999 -0.00169057
0.08875 0.08 0.01875 -0.0129271 0.142513 -0.00230162
0.09125 0.08 0.01875 -0.0109295 0.125897 -0.00300555
0.09375 0.08 0.01875 -0.00934183 0.11034 -0.00315143
0.09625 0.08 0.01875 -0.00770988 0.0966507 -0.0029662
0.09875 0.08 0.01875 -0.00429144 0.0922753 -0.00231864
