# UMean.air  FACE_DATA 320
#  x  y  z  UMean.air_x  UMean.air_y  UMean.air_z  
0.00125 0.63 0.00125 -0.000399592 0.198968 -0.000504373
0.00375 0.63 0.00125 -0.00162907 0.204455 0.000564215
0.00625 0.63 0.00125 -0.00222881 0.207545 0.000211998
0.00875 0.63 0.00125 -0.00229117 0.211258 2.44208e-05
0.01125 0.63 0.00125 -0.00257923 0.214336 7.66533e-05
0.01375 0.63 0.00125 -0.00277284 0.217354 8.4417e-05
0.01625 0.63 0.00125 -0.00302849 0.220188 0.000141177
0.01875 0.63 0.00125 -0.00321526 0.222821 0.000169758
0.02125 0.63 0.00125 -0.00340906 0.225346 0.000170729
0.02375 0.63 0.00125 -0.00353806 0.227762 0.000179216
0.02625 0.63 0.00125 -0.00365644 0.230086 0.000134998
0.02875 0.63 0.00125 -0.00371337 0.232187 5.48174e-05
0.03125 0.63 0.00125 -0.0037078 0.23409 -6.13789e-05
0.03375 0.63 0.00125 -0.00363184 0.235724 -0.000148708
0.03625 0.63 0.00125 -0.00343465 0.237064 -0.000205882
0.03875 0.63 0.00125 -0.00310205 0.238084 -0.00024353
0.04125 0.63 0.00125 -0.00275102 0.238552 -0.000165568
0.04375 0.63 0.00125 -0.00247723 0.238491 -3.13096e-05
0.04625 0.63 0.00125 -0.00232746 0.237985 7.99458e-05
0.04875 0.63 0.00125 -0.00223041 0.237159 0.000168103
0.05125 0.63 0.00125 -0.00210643 0.236148 0.000203794
0.05375 0.63 0.00125 -0.00191595 0.234992 0.000217654
0.05625 0.63 0.00125 -0.00164587 0.233758 0.000215055
0.05875 0.63 0.00125 -0.00129467 0.232388 0.000213703
0.06125 0.63 0.00125 -0.000902392 0.230767 0.000226684
0.06375 0.63 0.00125 -0.000474216 0.228908 0.000237093
0.06625 0.63 0.00125 -3.73267e-05 0.226887 0.000232377
0.06875 0.63 0.00125 0.00040181 0.224703 0.000237647
0.07125 0.63 0.00125 0.000790774 0.222297 0.000278748
0.07375 0.63 0.00125 0.00111018 0.219685 0.000349165
0.07625 0.63 0.00125 0.00130039 0.216965 0.000402889
0.07875 0.63 0.00125 0.00140523 0.214272 0.000437087
0.08125 0.63 0.00125 0.00140579 0.211623 0.000422805
0.08375 0.63 0.00125 0.00143029 0.209084 0.000349718
0.08625 0.63 0.00125 0.00139656 0.206645 0.000268096
0.08875 0.63 0.00125 0.00146982 0.204002 0.000216582
0.09125 0.63 0.00125 0.00153749 0.202279 0.000163543
0.09375 0.63 0.00125 0.00177143 0.198441 0.000412653
0.09625 0.63 0.00125 0.00129443 0.19538 0.000881914
0.09875 0.63 0.00125 0.000210011 0.189688 -0.000197975
0.00125 0.63 0.00375 0.000402864 0.204113 -0.00128066
0.00375 0.63 0.00375 -0.000290195 0.22099 0.000360198
0.00625 0.63 0.00375 -0.0015229 0.222685 0.000224918
0.00875 0.63 0.00375 -0.00151346 0.223249 -0.000279102
0.01125 0.63 0.00375 -0.00187383 0.224772 -0.000110014
0.01375 0.63 0.00375 -0.00207047 0.225854 -0.000117746
0.01625 0.63 0.00375 -0.00224838 0.226839 -3.61646e-05
0.01875 0.63 0.00375 -0.00236426 0.227688 3.10139e-05
0.02125 0.63 0.00375 -0.00246439 0.22842 7.6095e-05
0.02375 0.63 0.00375 -0.00248022 0.229046 0.000137986
0.02625 0.63 0.00375 -0.00244859 0.229523 0.000147484
0.02875 0.63 0.00375 -0.0024028 0.229839 0.00012659
0.03125 0.63 0.00375 -0.00239214 0.230033 5.35586e-05
0.03375 0.63 0.00375 -0.00239596 0.230193 7.30094e-06
0.03625 0.63 0.00375 -0.00237379 0.23035 -1.66914e-06
0.03875 0.63 0.00375 -0.00230022 0.230465 -6.46962e-06
0.04125 0.63 0.00375 -0.00220136 0.230449 6.03345e-05
0.04375 0.63 0.00375 -0.00210321 0.230247 0.000144035
0.04625 0.63 0.00375 -0.00202699 0.229845 0.000185879
0.04875 0.63 0.00375 -0.00196045 0.229297 0.000232002
0.05125 0.63 0.00375 -0.00187786 0.228664 0.000230697
0.05375 0.63 0.00375 -0.00174577 0.228008 0.000203757
0.05625 0.63 0.00375 -0.00156632 0.227334 0.000174482
0.05875 0.63 0.00375 -0.00135803 0.226638 0.000153869
0.06125 0.63 0.00375 -0.00113783 0.225933 0.000154301
0.06375 0.63 0.00375 -0.000903547 0.225248 0.000145974
0.06625 0.63 0.00375 -0.000673059 0.224582 0.000100869
0.06875 0.63 0.00375 -0.000465085 0.223938 6.75662e-05
0.07125 0.63 0.00375 -0.000313029 0.223371 9.61675e-05
0.07375 0.63 0.00375 -0.00019696 0.222942 0.000185415
0.07625 0.63 0.00375 -0.000112358 0.222635 0.000272464
0.07875 0.63 0.00375 -2.79137e-05 0.222407 0.000326331
0.08125 0.63 0.00375 3.41161e-05 0.222226 0.00030373
0.08375 0.63 0.00375 0.000113084 0.222036 0.000234443
0.08625 0.63 0.00375 0.000165095 0.221814 0.000185392
0.08875 0.63 0.00375 0.00015921 0.221463 0.000153404
0.09125 0.63 0.00375 9.00374e-07 0.220524 -0.000212582
0.09375 0.63 0.00375 0.000399199 0.221744 0.000519734
0.09625 0.63 0.00375 -0.000487376 0.220804 0.000783747
0.09875 0.63 0.00375 -0.000729758 0.194149 -0.000871732
0.00125 0.63 0.00625 -0.000207682 0.206127 -0.00126596
0.00375 0.63 0.00625 -0.000778978 0.221825 -0.000229428
0.00625 0.63 0.00625 -0.00138391 0.222771 0.00012138
0.00875 0.63 0.00625 -0.00158269 0.222678 -0.000206361
0.01125 0.63 0.00625 -0.00206776 0.224251 -0.000144502
0.01375 0.63 0.00625 -0.00232934 0.225355 -0.000150294
0.01625 0.63 0.00625 -0.00251839 0.22656 -9.70213e-05
0.01875 0.63 0.00625 -0.00264718 0.227689 -2.11762e-05
0.02125 0.63 0.00625 -0.00272795 0.228734 6.06944e-05
0.02375 0.63 0.00625 -0.00273339 0.229662 0.000131874
0.02625 0.63 0.00625 -0.00270018 0.230423 0.000152551
0.02875 0.63 0.00625 -0.00264162 0.231031 0.0001565
0.03125 0.63 0.00625 -0.00259102 0.231501 0.000135731
0.03375 0.63 0.00625 -0.0025356 0.231875 0.000132526
0.03625 0.63 0.00625 -0.00246253 0.232176 0.000153057
0.03875 0.63 0.00625 -0.00236327 0.232367 0.000165984
0.04125 0.63 0.00625 -0.0022584 0.232403 0.000149326
0.04375 0.63 0.00625 -0.00216215 0.232242 9.48836e-05
0.04625 0.63 0.00625 -0.00208563 0.231879 2.31767e-05
0.04875 0.63 0.00625 -0.00201761 0.231378 -1.51737e-05
0.05125 0.63 0.00625 -0.00193456 0.230785 -4.82869e-05
0.05375 0.63 0.00625 -0.00180713 0.230125 -9.43198e-05
0.05625 0.63 0.00625 -0.00163904 0.229401 -0.000131028
0.05875 0.63 0.00625 -0.00144035 0.228626 -0.000154939
0.06125 0.63 0.00625 -0.00121518 0.227804 -0.000165822
0.06375 0.63 0.00625 -0.000963426 0.226927 -0.000178449
0.06625 0.63 0.00625 -0.000711147 0.22599 -0.000212044
0.06875 0.63 0.00625 -0.000484989 0.225027 -0.000234118
0.07125 0.63 0.00625 -0.00031112 0.224116 -0.00022815
0.07375 0.63 0.00625 -0.00017448 0.223306 -0.000180609
0.07625 0.63 0.00625 -6.94889e-05 0.222604 -0.000116408
0.07875 0.63 0.00625 2.88569e-05 0.221951 -6.40914e-05
0.08125 0.63 0.00625 9.15487e-05 0.221332 -4.75732e-05
0.08375 0.63 0.00625 0.000117389 0.220711 -1.81293e-05
0.08625 0.63 0.00625 0.00014769 0.220246 2.46678e-05
0.08875 0.63 0.00625 0.000134841 0.219957 7.02022e-05
0.09125 0.63 0.00625 -0.000217874 0.218543 -0.000168755
0.09375 0.63 0.00625 -2.64462e-05 0.220931 0.00032954
0.09625 0.63 0.00625 -0.000201231 0.221735 -9.76423e-05
0.09875 0.63 0.00625 -0.000226254 0.196429 -0.0010984
0.00125 0.63 0.00875 -0.000604943 0.208311 -0.000282349
0.00375 0.63 0.00875 -0.00148759 0.220912 0.000202857
0.00625 0.63 0.00875 -0.00182734 0.221547 0.000244065
0.00875 0.63 0.00875 -0.00183692 0.222278 0.00015351
0.01125 0.63 0.00875 -0.00216918 0.223979 0.00010221
0.01375 0.63 0.00875 -0.00233907 0.225118 0.000106787
0.01625 0.63 0.00875 -0.00249944 0.226319 0.000129093
0.01875 0.63 0.00875 -0.0026202 0.227404 0.000164799
0.02125 0.63 0.00875 -0.00270336 0.22842 0.000198526
0.02375 0.63 0.00875 -0.00271913 0.22933 0.000215484
0.02625 0.63 0.00875 -0.00270003 0.230105 0.000193296
0.02875 0.63 0.00875 -0.00265072 0.230751 0.000153296
0.03125 0.63 0.00875 -0.00259164 0.231272 0.000101183
0.03375 0.63 0.00875 -0.00251311 0.231677 6.03427e-05
0.03625 0.63 0.00875 -0.00241893 0.231971 3.19032e-05
0.03875 0.63 0.00875 -0.00231034 0.232118 1.03515e-05
0.04125 0.63 0.00875 -0.00221 0.232083 -1.27757e-05
0.04375 0.63 0.00875 -0.00213041 0.231858 -3.99809e-05
0.04625 0.63 0.00875 -0.00207498 0.231466 -6.45134e-05
0.04875 0.63 0.00875 -0.0020262 0.230958 -7.78397e-05
0.05125 0.63 0.00875 -0.00196478 0.230368 -9.59861e-05
0.05375 0.63 0.00875 -0.0018679 0.229722 -0.000119919
0.05625 0.63 0.00875 -0.00172973 0.229029 -0.00014016
0.05875 0.63 0.00875 -0.00155061 0.228294 -0.000151153
0.06125 0.63 0.00875 -0.0013377 0.227516 -0.000157268
0.06375 0.63 0.00875 -0.00110254 0.226686 -0.00015963
0.06625 0.63 0.00875 -0.000869264 0.225798 -0.000156577
0.06875 0.63 0.00875 -0.000656811 0.224892 -0.000139969
0.07125 0.63 0.00875 -0.000487163 0.224029 -0.000120308
0.07375 0.63 0.00875 -0.000351417 0.223248 -7.88294e-05
0.07625 0.63 0.00875 -0.000251327 0.222567 -2.06775e-05
0.07875 0.63 0.00875 -0.000159699 0.221955 4.11028e-05
0.08125 0.63 0.00875 -8.93245e-05 0.221411 8.97493e-05
0.08375 0.63 0.00875 -3.3687e-05 0.220869 0.000130293
0.08625 0.63 0.00875 7.40394e-05 0.220357 0.000171063
0.08875 0.63 0.00875 0.000232076 0.220069 0.000210506
0.09125 0.63 0.00875 2.69738e-05 0.218343 0.000280189
0.09375 0.63 0.00875 0.000432592 0.219161 0.000434401
0.09625 0.63 0.00875 0.000584075 0.220305 0.000247241
0.09875 0.63 0.00875 0.000168529 0.199081 -0.000278833
0.00125 0.63 0.01125 -0.000562276 0.208086 0.000479695
0.00375 0.63 0.01125 -0.00153682 0.220727 1.16601e-05
0.00625 0.63 0.01125 -0.00189375 0.221394 -0.000202128
0.00875 0.63 0.01125 -0.00179032 0.222142 -9.27438e-05
0.01125 0.63 0.01125 -0.00213489 0.223878 -8.69853e-05
0.01375 0.63 0.01125 -0.00230979 0.225009 -4.6003e-05
0.01625 0.63 0.01125 -0.00246377 0.226198 2.44385e-06
0.01875 0.63 0.01125 -0.0025838 0.227264 6.95684e-05
0.02125 0.63 0.01125 -0.00267902 0.22827 0.000128662
0.02375 0.63 0.01125 -0.00270935 0.229199 0.000176782
0.02625 0.63 0.01125 -0.00269418 0.23002 0.000209174
0.02875 0.63 0.01125 -0.00263173 0.230699 0.000240174
0.03125 0.63 0.01125 -0.00255213 0.23123 0.000267586
0.03375 0.63 0.01125 -0.00245196 0.231623 0.000286465
0.03625 0.63 0.01125 -0.00234452 0.231885 0.00029093
0.03875 0.63 0.01125 -0.00223705 0.231988 0.000282363
0.04125 0.63 0.01125 -0.00214802 0.231914 0.000267713
0.04375 0.63 0.01125 -0.00208469 0.231666 0.000240793
0.04625 0.63 0.01125 -0.00204961 0.231267 0.000213134
0.04875 0.63 0.01125 -0.0020244 0.230757 0.000189822
0.05125 0.63 0.01125 -0.00198798 0.23018 0.000160088
0.05375 0.63 0.01125 -0.0019124 0.229561 0.000126891
0.05625 0.63 0.01125 -0.00178816 0.228901 9.54992e-05
0.05875 0.63 0.01125 -0.00162068 0.228196 7.21072e-05
0.06125 0.63 0.01125 -0.00142367 0.227448 4.38846e-05
0.06375 0.63 0.01125 -0.00120499 0.226655 1.29974e-05
0.06625 0.63 0.01125 -0.0009834 0.22581 -1.21775e-05
0.06875 0.63 0.01125 -0.000774093 0.22495 -4.60163e-05
0.07125 0.63 0.01125 -0.000599214 0.224119 -7.13037e-05
0.07375 0.63 0.01125 -0.000456911 0.223349 -9.03059e-05
0.07625 0.63 0.01125 -0.00035428 0.222667 -9.54718e-05
0.07875 0.63 0.01125 -0.00026343 0.222071 -9.96676e-05
0.08125 0.63 0.01125 -0.000187791 0.22156 -0.000105063
0.08375 0.63 0.01125 -0.00011485 0.22104 -0.000118854
0.08625 0.63 0.01125 1.68268e-05 0.22053 -0.000118171
0.08875 0.63 0.01125 0.000185413 0.220234 -0.000134298
0.09125 0.63 0.01125 1.34652e-06 0.218492 -0.00019674
0.09375 0.63 0.01125 0.000441919 0.219282 -0.000305626
0.09625 0.63 0.01125 0.000597112 0.220215 -0.000114419
0.09875 0.63 0.01125 0.000170885 0.199043 0.000439744
0.00125 0.63 0.01375 -6.3131e-05 0.205521 0.00159598
0.00375 0.63 0.01375 -0.000656082 0.221961 0.000644314
0.00625 0.63 0.01375 -0.00135088 0.223059 -1.3543e-05
0.00875 0.63 0.01375 -0.00143452 0.222641 0.000326328
0.01125 0.63 0.01375 -0.00193791 0.224195 0.000184499
0.01375 0.63 0.01375 -0.00221967 0.225259 0.000194159
0.01625 0.63 0.01375 -0.00241417 0.226384 0.000179211
0.01875 0.63 0.01375 -0.00255614 0.227441 0.000214366
0.02125 0.63 0.01375 -0.00265694 0.228468 0.000249146
0.02375 0.63 0.01375 -0.00267162 0.22942 0.000248567
0.02625 0.63 0.01375 -0.00262571 0.23023 0.000229084
0.02875 0.63 0.01375 -0.0025313 0.230851 0.000219514
0.03125 0.63 0.01375 -0.00243279 0.231294 0.000229912
0.03375 0.63 0.01375 -0.00232973 0.2316 0.000234146
0.03625 0.63 0.01375 -0.00223294 0.231807 0.000199012
0.03875 0.63 0.01375 -0.00214495 0.231888 0.000148553
0.04125 0.63 0.01375 -0.00208321 0.231815 0.000115304
0.04375 0.63 0.01375 -0.00204297 0.231595 8.82171e-05
0.04625 0.63 0.01375 -0.00202389 0.231225 7.1467e-05
0.04875 0.63 0.01375 -0.00201441 0.230738 6.74134e-05
0.05125 0.63 0.01375 -0.00199402 0.230188 4.47501e-05
0.05375 0.63 0.01375 -0.00193319 0.229603 1.6745e-05
0.05625 0.63 0.01375 -0.00181938 0.228968 7.68699e-06
0.05875 0.63 0.01375 -0.0016584 0.228278 -1.27251e-06
0.06125 0.63 0.01375 -0.00147036 0.227537 -2.50032e-05
0.06375 0.63 0.01375 -0.0012612 0.226756 -4.90336e-05
0.06625 0.63 0.01375 -0.00104829 0.225924 -5.51638e-05
0.06875 0.63 0.01375 -0.000845881 0.225075 -7.01872e-05
0.07125 0.63 0.01375 -0.000670131 0.224266 -6.45217e-05
0.07375 0.63 0.01375 -0.000515979 0.223505 -5.52299e-05
0.07625 0.63 0.01375 -0.000402561 0.222818 -3.87213e-05
0.07875 0.63 0.01375 -0.000305584 0.222223 -1.8793e-05
0.08125 0.63 0.01375 -0.00022706 0.221708 9.48092e-06
0.08375 0.63 0.01375 -0.000146309 0.221201 3.87987e-05
0.08625 0.63 0.01375 -4.31777e-05 0.220784 4.27683e-05
0.08875 0.63 0.01375 1.02367e-05 0.220508 1.95757e-05
0.09125 0.63 0.01375 -0.000269539 0.219088 0.000287726
0.09375 0.63 0.01375 -8.04476e-06 0.221441 -0.000278963
0.09625 0.63 0.01375 -0.000176006 0.221797 0.000210192
0.09875 0.63 0.01375 -0.000226173 0.196341 0.00134258
0.00125 0.63 0.01625 0.000509352 0.202954 0.00153996
0.00375 0.63 0.01625 -0.000226657 0.220093 -0.000364483
0.00625 0.63 0.01625 -0.0015426 0.222245 -0.000289189
0.00875 0.63 0.01625 -0.0014017 0.222793 0.000320945
0.01125 0.63 0.01625 -0.00174771 0.224273 4.92992e-05
0.01375 0.63 0.01625 -0.00193752 0.225331 4.60059e-05
0.01625 0.63 0.01625 -0.00212833 0.226268 2.28545e-05
0.01875 0.63 0.01625 -0.00225972 0.227103 6.38586e-05
0.02125 0.63 0.01625 -0.00237653 0.227888 0.000101079
0.02375 0.63 0.01625 -0.00240483 0.228566 8.51294e-05
0.02625 0.63 0.01625 -0.0023705 0.229044 5.74302e-05
0.02875 0.63 0.01625 -0.00228528 0.22932 3.58231e-05
0.03125 0.63 0.01625 -0.00219785 0.229408 7.20448e-05
0.03375 0.63 0.01625 -0.00211185 0.229406 0.000120308
0.03625 0.63 0.01625 -0.00204932 0.2294 5.06778e-05
0.03875 0.63 0.01625 -0.00201017 0.229383 -5.33835e-05
0.04125 0.63 0.01625 -0.00200227 0.229278 -0.000135122
0.04375 0.63 0.01625 -0.00200938 0.229077 -0.000197017
0.04625 0.63 0.01625 -0.00203138 0.228777 -0.000233513
0.04875 0.63 0.01625 -0.00205886 0.228401 -0.000245073
0.05125 0.63 0.01625 -0.00207118 0.227979 -0.000260058
0.05375 0.63 0.01625 -0.00203163 0.227527 -0.000279169
0.05625 0.63 0.01625 -0.0019413 0.227045 -0.000262011
0.05875 0.63 0.01625 -0.0018095 0.226533 -0.000255837
0.06125 0.63 0.01625 -0.00165114 0.225977 -0.000266131
0.06375 0.63 0.01625 -0.00147218 0.225395 -0.000277408
0.06625 0.63 0.01625 -0.00129544 0.22482 -0.000241877
0.06875 0.63 0.01625 -0.00111802 0.224278 -0.000197897
0.07125 0.63 0.01625 -0.00095403 0.223824 -0.000170792
0.07375 0.63 0.01625 -0.00079722 0.223479 -0.000169393
0.07625 0.63 0.01625 -0.000660289 0.223262 -0.000179093
0.07875 0.63 0.01625 -0.000515582 0.223146 -0.000204985
0.08125 0.63 0.01625 -0.000378716 0.223051 -0.000189541
0.08375 0.63 0.01625 -0.000199358 0.222913 -0.000116622
0.08625 0.63 0.01625 -4.78623e-05 0.222667 -0.00011726
0.08875 0.63 0.01625 2.27039e-05 0.222223 -9.07243e-05
0.09125 0.63 0.01625 -5.85372e-05 0.221294 0.000272472
0.09375 0.63 0.01625 0.000392232 0.222431 -0.00052554
0.09625 0.63 0.01625 -0.000482667 0.221045 -0.000641435
0.09875 0.63 0.01625 -0.000710418 0.193452 0.00107058
0.00125 0.63 0.01875 -0.000381454 0.197247 0.000524008
0.00375 0.63 0.01875 -0.00174572 0.203925 -0.000786451
0.00625 0.63 0.01875 -0.0023304 0.207095 -0.00032779
0.00875 0.63 0.01875 -0.00225412 0.211147 -7.75727e-05
0.01125 0.63 0.01875 -0.00250138 0.214338 -0.000194299
0.01375 0.63 0.01875 -0.00270308 0.217516 -0.000205714
0.01625 0.63 0.01875 -0.00298444 0.22038 -0.000212309
0.01875 0.63 0.01875 -0.00314243 0.223042 -0.000180645
0.02125 0.63 0.01875 -0.00329297 0.225543 -0.000143892
0.02375 0.63 0.01875 -0.00338252 0.227839 -0.000125936
0.02625 0.63 0.01875 -0.00345044 0.229901 -0.000107025
0.02875 0.63 0.01875 -0.00343243 0.231738 -8.50692e-05
0.03125 0.63 0.01875 -0.00332425 0.23328 -1.93026e-05
0.03375 0.63 0.01875 -0.00311838 0.234479 5.68862e-05
0.03625 0.63 0.01875 -0.0029066 0.235346 3.3391e-05
0.03875 0.63 0.01875 -0.00273493 0.235941 -3.07535e-05
0.04125 0.63 0.01875 -0.00261828 0.236232 -9.66055e-05
0.04375 0.63 0.01875 -0.00255298 0.236222 -0.000150606
0.04625 0.63 0.01875 -0.00254616 0.23593 -0.00017928
0.04875 0.63 0.01875 -0.00255191 0.235402 -0.000188615
0.05125 0.63 0.01875 -0.00251271 0.234689 -0.000190935
0.05375 0.63 0.01875 -0.00237343 0.233796 -0.000198195
0.05625 0.63 0.01875 -0.00215768 0.232756 -0.000186491
0.05875 0.63 0.01875 -0.0018944 0.231578 -0.000185757
0.06125 0.63 0.01875 -0.00159439 0.230223 -0.000189161
0.06375 0.63 0.01875 -0.00125179 0.22866 -0.000196394
0.06625 0.63 0.01875 -0.000877116 0.226923 -0.000167752
0.06875 0.63 0.01875 -0.000460776 0.224963 -0.000128874
0.07125 0.63 0.01875 -4.7943e-05 0.222753 -0.000119141
0.07375 0.63 0.01875 0.000329025 0.2203 -0.00014602
0.07625 0.63 0.01875 0.000627698 0.217757 -0.000184669
0.07875 0.63 0.01875 0.000866906 0.215069 -0.000245239
0.08125 0.63 0.01875 0.000993375 0.21221 -0.000268487
0.08375 0.63 0.01875 0.00114105 0.209384 -0.000236886
0.08625 0.63 0.01875 0.00119927 0.206442 -0.000227998
0.08875 0.63 0.01875 0.00136173 0.203525 -0.000182565
0.09125 0.63 0.01875 0.00146087 0.201611 -0.000165072
0.09375 0.63 0.01875 0.00169571 0.197164 -0.000402218
0.09625 0.63 0.01875 0.0013046 0.194206 -0.00081842
0.09875 0.63 0.01875 0.000263686 0.188559 0.000228039
