# UMean.water  FACE_DATA 320
#  x  y  z  UMean.water_x  UMean.water_y  UMean.water_z  
0.00125 0.63 0.00125 -2.86698e-06 -0.0247984 -0.000148551
0.00375 0.63 0.00125 -0.000408527 -0.019342 -5.18172e-05
0.00625 0.63 0.00125 -0.000857428 -0.0163197 -6.4754e-05
0.00875 0.63 0.00125 -0.00108688 -0.0125948 -7.1402e-05
0.01125 0.63 0.00125 -0.00133082 -0.00950724 -7.29227e-05
0.01375 0.63 0.00125 -0.00147681 -0.00648585 -4.48565e-05
0.01625 0.63 0.00125 -0.00164508 -0.00365431 4.35887e-06
0.01875 0.63 0.00125 -0.00176615 -0.00102553 5.48092e-05
0.02125 0.63 0.00125 -0.00191296 0.00148897 0.000106812
0.02375 0.63 0.00125 -0.00202747 0.00389731 0.000147599
0.02625 0.63 0.00125 -0.00214418 0.00623801 0.000152722
0.02875 0.63 0.00125 -0.00222643 0.00837047 0.00012792
0.03125 0.63 0.00125 -0.00229956 0.0103076 9.36535e-05
0.03375 0.63 0.00125 -0.00236218 0.0119552 6.62748e-05
0.03625 0.63 0.00125 -0.00239768 0.0133024 4.83731e-05
0.03875 0.63 0.00125 -0.00240103 0.0143465 2.60882e-05
0.04125 0.63 0.00125 -0.00242018 0.0148284 1.75264e-05
0.04375 0.63 0.00125 -0.00243399 0.0147627 1.99038e-05
0.04625 0.63 0.00125 -0.00243451 0.0142293 3.08937e-05
0.04875 0.63 0.00125 -0.00239 0.0133574 4.56557e-05
0.05125 0.63 0.00125 -0.00228439 0.0122951 6.24591e-05
0.05375 0.63 0.00125 -0.00212078 0.0110939 7.2735e-05
0.05625 0.63 0.00125 -0.00190179 0.00981891 7.1723e-05
0.05875 0.63 0.00125 -0.00163282 0.00841659 6.93953e-05
0.06125 0.63 0.00125 -0.00134198 0.00676664 7.02047e-05
0.06375 0.63 0.00125 -0.00102771 0.00488639 7.07284e-05
0.06625 0.63 0.00125 -0.000713292 0.00285467 6.94725e-05
0.06875 0.63 0.00125 -0.000410912 0.000668858 6.88774e-05
0.07125 0.63 0.00125 -0.000147712 -0.00173705 6.79687e-05
0.07375 0.63 0.00125 9.12576e-05 -0.00435191 6.95905e-05
0.07625 0.63 0.00125 0.00027568 -0.00707517 7.00497e-05
0.07875 0.63 0.00125 0.000434306 -0.0097718 7.05613e-05
0.08125 0.63 0.00125 0.000521098 -0.0124242 5.92852e-05
0.08375 0.63 0.00125 0.000607233 -0.0149663 4.13666e-05
0.08625 0.63 0.00125 0.000627249 -0.0174038 6.36635e-06
0.08875 0.63 0.00125 0.0006731 -0.0200687 -2.66582e-06
0.09125 0.63 0.00125 0.000581597 -0.0217679 8.07324e-06
0.09375 0.63 0.00125 0.000473798 -0.0256352 -1.0838e-05
0.09625 0.63 0.00125 0.000172056 -0.028648 3.54527e-05
0.09875 0.63 0.00125 -0.000105827 -0.0342162 -5.52329e-06
0.00125 0.63 0.00375 -0.000184903 -0.01968 -0.000248386
0.00375 0.63 0.00375 -0.000326027 -0.00202349 0.000145653
0.00625 0.63 0.00375 -0.00072887 -0.000698485 9.02489e-05
0.00875 0.63 0.00375 -0.00103281 -0.000291094 -1.88543e-05
0.01125 0.63 0.00375 -0.00131127 0.00125342 -4.33068e-05
0.01375 0.63 0.00375 -0.00152773 0.00228449 -3.21509e-05
0.01625 0.63 0.00375 -0.00172464 0.0032245 7.33708e-06
0.01875 0.63 0.00375 -0.00186454 0.00402261 5.41279e-05
0.02125 0.63 0.00375 -0.00199054 0.00469986 0.000108588
0.02375 0.63 0.00375 -0.00206248 0.00527272 0.000155628
0.02625 0.63 0.00375 -0.00210608 0.00570429 0.000179795
0.02875 0.63 0.00375 -0.002127 0.00598336 0.000175635
0.03125 0.63 0.00375 -0.00214498 0.00614466 0.000151587
0.03375 0.63 0.00375 -0.00215332 0.00627359 0.000122865
0.03625 0.63 0.00375 -0.00214194 0.00640772 9.98843e-05
0.03875 0.63 0.00375 -0.0021172 0.00651607 6.93155e-05
0.04125 0.63 0.00375 -0.00210677 0.0065112 3.62505e-05
0.04375 0.63 0.00375 -0.00210776 0.00632049 1.06079e-05
0.04625 0.63 0.00375 -0.0021091 0.00591914 -7.99462e-07
0.04875 0.63 0.00375 -0.00208433 0.00535725 -2.6419e-06
0.05125 0.63 0.00375 -0.00201748 0.00470316 -3.92927e-06
0.05375 0.63 0.00375 -0.00189874 0.00402528 -8.61175e-06
0.05625 0.63 0.00375 -0.00174028 0.00333613 -1.10419e-05
0.05875 0.63 0.00375 -0.00155079 0.00262858 -1.027e-05
0.06125 0.63 0.00375 -0.00133743 0.00191765 -7.75866e-06
0.06375 0.63 0.00375 -0.00110305 0.00123622 -7.33689e-06
0.06625 0.63 0.00375 -0.000864621 0.000585387 -6.53299e-06
0.06875 0.63 0.00375 -0.000632675 -3.36908e-05 -4.07552e-07
0.07125 0.63 0.00375 -0.000428359 -0.000568347 9.62948e-06
0.07375 0.63 0.00375 -0.000248033 -0.000957337 2.92559e-05
0.07625 0.63 0.00375 -0.00010397 -0.00122025 5.48948e-05
0.07875 0.63 0.00375 1.88619e-05 -0.00140144 8.2054e-05
0.08125 0.63 0.00375 9.75685e-05 -0.00153698 9.51373e-05
0.08375 0.63 0.00375 0.000165501 -0.00168519 9.84851e-05
0.08625 0.63 0.00375 0.000189287 -0.00186187 8.92623e-05
0.08875 0.63 0.00375 0.000208021 -0.00215669 0.000110287
0.09125 0.63 0.00375 0.000163103 -0.0031321 0.000155417
0.09375 0.63 0.00375 9.52368e-05 -0.00169587 0.000263425
0.09625 0.63 0.00375 -4.1813e-05 -0.00211644 0.000326497
0.09875 0.63 0.00375 0.000106584 -0.0298793 -5.32917e-05
0.00125 0.63 0.00625 -0.000319427 -0.0177712 -0.000317147
0.00375 0.63 0.00625 -0.00052391 -0.00159338 9.59132e-05
0.00625 0.63 0.00625 -0.000808648 -0.000872381 9.82835e-05
0.00875 0.63 0.00625 -0.00107027 -0.00108742 2.35624e-05
0.01125 0.63 0.00625 -0.00132081 0.000521469 -2.08399e-05
0.01375 0.63 0.00625 -0.00153053 0.0016 -2.79592e-05
0.01625 0.63 0.00625 -0.00172524 0.00279665 -5.16645e-07
0.01875 0.63 0.00625 -0.00186908 0.00391634 4.56632e-05
0.02125 0.63 0.00625 -0.00199294 0.00494869 0.00010242
0.02375 0.63 0.00625 -0.00206753 0.00586707 0.000152802
0.02625 0.63 0.00625 -0.00211412 0.00662129 0.000178626
0.02875 0.63 0.00625 -0.00213284 0.00722687 0.000176913
0.03125 0.63 0.00625 -0.00214118 0.00769476 0.000155084
0.03375 0.63 0.00625 -0.0021368 0.00806784 0.000129231
0.03625 0.63 0.00625 -0.00212219 0.0083706 0.000103199
0.03875 0.63 0.00625 -0.00210133 0.00856872 6.93273e-05
0.04125 0.63 0.00625 -0.0020918 0.00861728 3.00043e-05
0.04375 0.63 0.00625 -0.00209598 0.00846375 -7.12041e-06
0.04625 0.63 0.00625 -0.00210377 0.00809658 -3.4187e-05
0.04875 0.63 0.00625 -0.00209169 0.00758103 -5.30586e-05
0.05125 0.63 0.00625 -0.00204625 0.00696534 -6.63753e-05
0.05375 0.63 0.00625 -0.00195895 0.00627944 -7.84821e-05
0.05625 0.63 0.00625 -0.00183424 0.00552791 -8.79164e-05
0.05875 0.63 0.00625 -0.00167335 0.00472838 -9.23303e-05
0.06125 0.63 0.00625 -0.00148348 0.00388552 -9.30508e-05
0.06375 0.63 0.00625 -0.00127197 0.00299326 -8.98607e-05
0.06625 0.63 0.00625 -0.00105344 0.00204413 -8.34317e-05
0.06875 0.63 0.00625 -0.000835612 0.00107509 -7.13261e-05
0.07125 0.63 0.00625 -0.000636751 0.000165288 -5.3777e-05
0.07375 0.63 0.00625 -0.000461301 -0.000638176 -2.64143e-05
0.07625 0.63 0.00625 -0.000319518 -0.00133069 7.80244e-06
0.07875 0.63 0.00625 -0.00019905 -0.00197732 4.67667e-05
0.08125 0.63 0.00625 -0.000114674 -0.00259483 7.96459e-05
0.08375 0.63 0.00625 -4.41359e-05 -0.00322176 0.000108864
0.08625 0.63 0.00625 -1.24822e-05 -0.00368558 0.000127414
0.08875 0.63 0.00625 1.94001e-05 -0.00393982 0.000167771
0.09125 0.63 0.00625 2.99659e-05 -0.00544774 0.00022406
0.09375 0.63 0.00625 6.8631e-05 -0.002875 0.00027036
0.09625 0.63 0.00625 9.95909e-05 -0.00169114 0.000226194
0.09875 0.63 0.00625 0.000223391 -0.0276481 -0.000185181
0.00125 0.63 0.00875 -0.000416869 -0.0155562 2.57902e-05
0.00375 0.63 0.00875 -0.000690651 -0.00263077 8.73431e-05
0.00625 0.63 0.00875 -0.000915674 -0.00218124 5.69474e-05
0.00875 0.63 0.00875 -0.00111558 -0.00147164 6.16932e-06
0.01125 0.63 0.00875 -0.0013193 0.000260126 -1.32959e-05
0.01375 0.63 0.00875 -0.00152009 0.00137599 -9.70371e-06
0.01625 0.63 0.00875 -0.00171245 0.00256904 1.43831e-05
0.01875 0.63 0.00875 -0.00185915 0.00363947 5.48075e-05
0.02125 0.63 0.00875 -0.0019822 0.00464025 0.000101409
0.02375 0.63 0.00875 -0.00205638 0.00553472 0.000142357
0.02625 0.63 0.00875 -0.00210133 0.00629532 0.000163391
0.02875 0.63 0.00875 -0.00211693 0.00693091 0.000163088
0.03125 0.63 0.00875 -0.00211954 0.00744312 0.000144836
0.03375 0.63 0.00875 -0.00210705 0.00784471 0.000118609
0.03625 0.63 0.00875 -0.00208889 0.00814017 8.94845e-05
0.03875 0.63 0.00875 -0.0020716 0.00829093 5.56915e-05
0.04125 0.63 0.00875 -0.00206842 0.00826026 1.85897e-05
0.04375 0.63 0.00875 -0.00207898 0.0080348 -1.66145e-05
0.04625 0.63 0.00875 -0.00209489 0.00763296 -4.41351e-05
0.04875 0.63 0.00875 -0.00209677 0.00710729 -6.3969e-05
0.05125 0.63 0.00875 -0.00207066 0.00649277 -7.92219e-05
0.05375 0.63 0.00875 -0.00200422 0.00581772 -9.18956e-05
0.05625 0.63 0.00875 -0.00189774 0.00509761 -0.00010132
0.05875 0.63 0.00875 -0.00175403 0.00433926 -0.000103917
0.06125 0.63 0.00875 -0.00158085 0.00354283 -0.000102365
0.06375 0.63 0.00875 -0.001387 0.0027018 -9.76954e-05
0.06625 0.63 0.00875 -0.00118332 0.00180815 -8.90392e-05
0.06875 0.63 0.00875 -0.000976843 0.000904141 -7.33236e-05
0.07125 0.63 0.00875 -0.000785138 4.97993e-05 -5.28266e-05
0.07375 0.63 0.00875 -0.000611763 -0.000716518 -2.38597e-05
0.07625 0.63 0.00875 -0.000469036 -0.00137888 1.29927e-05
0.07875 0.63 0.00875 -0.000347305 -0.00197333 5.39546e-05
0.08125 0.63 0.00875 -0.000258205 -0.00250065 9.12142e-05
0.08375 0.63 0.00875 -0.000179616 -0.00303284 0.000122938
0.08625 0.63 0.00875 -0.000124762 -0.00354034 0.000146526
0.08875 0.63 0.00875 -6.66849e-05 -0.00378239 0.000172741
0.09125 0.63 0.00875 1.73923e-06 -0.00558106 0.000188613
0.09375 0.63 0.00875 0.000106627 -0.00474185 0.000204524
0.09625 0.63 0.00875 0.000214872 -0.00328713 0.000159714
0.09875 0.63 0.00875 0.000271493 -0.0249679 5.6957e-05
0.00125 0.63 0.01125 -0.000408719 -0.0157885 0.000234336
0.00375 0.63 0.01125 -0.000668928 -0.00283147 3.14739e-05
0.00625 0.63 0.01125 -0.000891337 -0.00235185 -3.0398e-05
0.00875 0.63 0.01125 -0.00109035 -0.00161613 -2.72377e-05
0.01125 0.63 0.01125 -0.00129639 0.000156278 -3.23033e-05
0.01375 0.63 0.01125 -0.00149884 0.0012665 -1.518e-05
0.01625 0.63 0.01125 -0.00169245 0.00244997 2.96899e-06
0.01875 0.63 0.01125 -0.00183706 0.00350312 3.65519e-05
0.02125 0.63 0.01125 -0.00195772 0.00449386 7.47294e-05
0.02375 0.63 0.01125 -0.00202952 0.00540789 0.0001103
0.02625 0.63 0.01125 -0.00207205 0.00621536 0.000129614
0.02875 0.63 0.01125 -0.00208249 0.00688417 0.000132152
0.03125 0.63 0.01125 -0.00207807 0.00740825 0.000116976
0.03375 0.63 0.01125 -0.00205712 0.00779885 9.21574e-05
0.03625 0.63 0.01125 -0.00203441 0.00806415 6.26565e-05
0.03875 0.63 0.01125 -0.002019 0.00817394 3.19972e-05
0.04125 0.63 0.01125 -0.0020214 0.00810414 2.13908e-06
0.04375 0.63 0.01125 -0.00203961 0.00785618 -2.37735e-05
0.04625 0.63 0.01125 -0.00206691 0.00744767 -4.22801e-05
0.04875 0.63 0.01125 -0.00208424 0.00691777 -5.50698e-05
0.05125 0.63 0.01125 -0.00207573 0.00631182 -6.43973e-05
0.05375 0.63 0.01125 -0.00202715 0.00566125 -7.26148e-05
0.05625 0.63 0.01125 -0.0019366 0.00497062 -8.01558e-05
0.05875 0.63 0.01125 -0.00180572 0.00423987 -8.32653e-05
0.06125 0.63 0.01125 -0.00164495 0.0034739 -8.50745e-05
0.06375 0.63 0.01125 -0.00146277 0.00267064 -8.50977e-05
0.06625 0.63 0.01125 -0.00127023 0.00182176 -8.1234e-05
0.06875 0.63 0.01125 -0.00107102 0.000964321 -7.16775e-05
0.07125 0.63 0.01125 -0.000882365 0.000140757 -5.4161e-05
0.07375 0.63 0.01125 -0.000708867 -0.000615791 -2.7977e-05
0.07625 0.63 0.01125 -0.000563425 -0.00128015 7.09105e-06
0.07875 0.63 0.01125 -0.000437295 -0.00185826 4.52074e-05
0.08125 0.63 0.01125 -0.00034172 -0.00235245 8.20043e-05
0.08375 0.63 0.01125 -0.00025387 -0.00286194 0.000110001
0.08625 0.63 0.01125 -0.000187513 -0.00336738 0.000129177
0.08875 0.63 0.01125 -0.000115581 -0.00361675 0.000126311
0.09125 0.63 0.01125 -3.40932e-05 -0.00543082 0.000110113
0.09375 0.63 0.01125 7.68439e-05 -0.00461241 6.66949e-05
0.09625 0.63 0.01125 0.000193435 -0.00337611 5.60633e-05
0.09875 0.63 0.01125 0.000261957 -0.024999 0.000146632
0.00125 0.63 0.01375 -0.0002942 -0.0183851 0.000586927
0.00375 0.63 0.01375 -0.000455141 -0.00139831 1.85266e-05
0.00625 0.63 0.01375 -0.000736492 -0.00054992 -7.37848e-05
0.00875 0.63 0.01375 -0.000997602 -0.00112476 -4.12136e-05
0.01125 0.63 0.01375 -0.00125611 0.000480332 -2.93469e-05
0.01375 0.63 0.01375 -0.00146765 0.00152358 -1.16579e-05
0.01625 0.63 0.01375 -0.00167114 0.0026442 -4.05935e-06
0.01875 0.63 0.01375 -0.00181474 0.00369344 1.71237e-05
0.02125 0.63 0.01375 -0.00193125 0.00471131 4.29715e-05
0.02375 0.63 0.01375 -0.00199488 0.00565573 6.94942e-05
0.02625 0.63 0.01375 -0.00202732 0.00645916 8.36496e-05
0.02875 0.63 0.01375 -0.00202638 0.0070749 8.56677e-05
0.03125 0.63 0.01375 -0.00201131 0.0075158 7.07261e-05
0.03375 0.63 0.01375 -0.00198129 0.00782384 4.51953e-05
0.03625 0.63 0.01375 -0.00195365 0.00804138 1.45205e-05
0.03875 0.63 0.01375 -0.00193961 0.00813682 -1.57395e-05
0.04125 0.63 0.01375 -0.00195227 0.00807463 -4.22014e-05
0.04375 0.63 0.01375 -0.00198427 0.0078551 -5.9992e-05
0.04625 0.63 0.01375 -0.00202682 0.00747494 -6.80989e-05
0.04875 0.63 0.01375 -0.00206102 0.00696355 -6.92171e-05
0.05125 0.63 0.01375 -0.00206918 0.00637902 -6.7526e-05
0.05375 0.63 0.01375 -0.00203532 0.00575592 -6.51176e-05
0.05625 0.63 0.01375 -0.00195499 0.00508451 -6.25001e-05
0.05875 0.63 0.01375 -0.00183271 0.00436528 -5.99327e-05
0.06125 0.63 0.01375 -0.00168241 0.00360271 -6.11993e-05
0.06375 0.63 0.01375 -0.00150925 0.0028055 -6.41112e-05
0.06625 0.63 0.01375 -0.00132336 0.00196084 -6.49946e-05
0.06875 0.63 0.01375 -0.00112862 0.00110459 -5.93544e-05
0.07125 0.63 0.01375 -0.000941093 0.000295358 -4.32948e-05
0.07375 0.63 0.01375 -0.000764768 -0.000460331 -1.89202e-05
0.07625 0.63 0.01375 -0.000613062 -0.00113935 1.40448e-05
0.07875 0.63 0.01375 -0.000477314 -0.00172377 4.93004e-05
0.08125 0.63 0.01375 -0.000371274 -0.00223124 8.37125e-05
0.08375 0.63 0.01375 -0.000268148 -0.00273723 0.000108826
0.08625 0.63 0.01375 -0.000196023 -0.00314663 0.00012433
0.08875 0.63 0.01375 -0.000115943 -0.00338311 0.000100579
0.09125 0.63 0.01375 -6.5583e-05 -0.00488798 3.81377e-05
0.09375 0.63 0.01375 -6.66449e-07 -0.00234025 -4.2778e-05
0.09625 0.63 0.01375 5.01547e-05 -0.00162124 -5.76951e-05
0.09875 0.63 0.01375 0.00019644 -0.027716 0.000343028
0.00125 0.63 0.01625 -0.000136493 -0.020778 0.000412819
0.00375 0.63 0.01625 -0.000210083 -0.00287778 -9.96587e-05
0.00625 0.63 0.01625 -0.000626748 -0.00111251 -8.16389e-05
0.00875 0.63 0.01625 -0.000929201 -0.000749234 -2.40994e-06
0.01125 0.63 0.01625 -0.00122465 0.000754387 -1.54177e-05
0.01375 0.63 0.01625 -0.00144608 0.00176764 -2.33935e-05
0.01625 0.63 0.01625 -0.00165609 0.00266474 -3.88126e-05
0.01875 0.63 0.01625 -0.00179882 0.00346008 -3.95436e-05
0.02125 0.63 0.01625 -0.00192001 0.00420293 -3.22581e-05
0.02375 0.63 0.01625 -0.00198482 0.00483352 -1.90743e-05
0.02625 0.63 0.01625 -0.0020145 0.00526407 -1.22094e-05
0.02875 0.63 0.01625 -0.00200289 0.00549452 -1.16951e-05
0.03125 0.63 0.01625 -0.00197301 0.00554135 -2.64599e-05
0.03375 0.63 0.01625 -0.00193096 0.00551427 -5.25843e-05
0.03625 0.63 0.01625 -0.00190065 0.00550256 -8.42365e-05
0.03875 0.63 0.01625 -0.00189079 0.00549228 -0.000108615
0.04125 0.63 0.01625 -0.00191397 0.00539412 -0.000124114
0.04375 0.63 0.01625 -0.00195878 0.00519109 -0.000128379
0.04625 0.63 0.01625 -0.00201685 0.00488118 -0.000121256
0.04875 0.63 0.01625 -0.00206598 0.00448466 -0.000107562
0.05125 0.63 0.01625 -0.00208266 0.00403321 -9.05345e-05
0.05375 0.63 0.01625 -0.00204528 0.00355015 -7.57617e-05
0.05625 0.63 0.01625 -0.00195849 0.00304496 -6.72744e-05
0.05875 0.63 0.01625 -0.0018323 0.00251834 -6.21765e-05
0.06125 0.63 0.01625 -0.0016817 0.00195496 -6.56403e-05
0.06375 0.63 0.01625 -0.00150554 0.00137112 -7.13004e-05
0.06625 0.63 0.01625 -0.00131738 0.000801515 -7.19721e-05
0.06875 0.63 0.01625 -0.00112211 0.000274598 -6.54482e-05
0.07125 0.63 0.01625 -0.000931045 -0.000150768 -5.07936e-05
0.07375 0.63 0.01625 -0.000743359 -0.000454288 -3.08132e-05
0.07625 0.63 0.01625 -0.000578432 -0.000618896 -5.38012e-06
0.07875 0.63 0.01625 -0.000425256 -0.000674116 2.18369e-05
0.08125 0.63 0.01625 -0.000301245 -0.000709106 5.09077e-05
0.08375 0.63 0.01625 -0.000176601 -0.000790039 7.371e-05
0.08625 0.63 0.01625 -9.43384e-05 -0.00097794 9.32846e-05
0.08875 0.63 0.01625 -5.64732e-06 -0.00136377 7.74152e-05
0.09125 0.63 0.01625 1.50859e-05 -0.00231794 2.10579e-05
0.09375 0.63 0.01625 -4.49602e-06 -0.000950665 -0.000112238
0.09625 0.63 0.01625 -9.82528e-05 -0.00181474 -0.000221143
0.09875 0.63 0.01625 9.50937e-05 -0.0305582 9.98324e-05
0.00125 0.63 0.01875 8.39734e-05 -0.0265555 0.000158126
0.00375 0.63 0.01875 -0.000297453 -0.0198198 9.01718e-05
0.00625 0.63 0.01875 -0.000749862 -0.0167851 7.99745e-05
0.00875 0.63 0.01875 -0.000956728 -0.0127305 4.59274e-05
0.01125 0.63 0.01875 -0.0012081 -0.00953124 1.62017e-05
0.01375 0.63 0.01875 -0.00138395 -0.00632264 -2.49043e-05
0.01625 0.63 0.01875 -0.00161657 -0.00344716 -6.89967e-05
0.01875 0.63 0.01875 -0.00178449 -0.000774556 -9.05769e-05
0.02125 0.63 0.01875 -0.00195484 0.00173842 -9.84648e-05
0.02375 0.63 0.01875 -0.00206294 0.00403894 -9.51857e-05
0.02625 0.63 0.01875 -0.00214003 0.00609594 -9.39141e-05
0.02875 0.63 0.01875 -0.00215787 0.00792633 -9.24065e-05
0.03125 0.63 0.01875 -0.00215325 0.00946447 -9.5191e-05
0.03375 0.63 0.01875 -0.00213186 0.0106718 -0.000102902
0.03625 0.63 0.01875 -0.00213128 0.0115543 -0.000121806
0.03875 0.63 0.01875 -0.00216102 0.0121667 -0.000140156
0.04125 0.63 0.01875 -0.00223218 0.0124686 -0.000151989
0.04375 0.63 0.01875 -0.0023219 0.0124645 -0.000146962
0.04625 0.63 0.01875 -0.00241859 0.0121618 -0.000127206
0.04875 0.63 0.01875 -0.00248474 0.0116035 -0.000104531
0.05125 0.63 0.01875 -0.00248359 0.0108471 -8.25321e-05
0.05375 0.63 0.01875 -0.00238655 0.00991237 -6.70776e-05
0.05625 0.63 0.01875 -0.00222797 0.00884469 -5.6431e-05
0.05875 0.63 0.01875 -0.00203634 0.0076398 -5.31509e-05
0.06125 0.63 0.01875 -0.00181857 0.00625739 -5.37396e-05
0.06375 0.63 0.01875 -0.00157536 0.00467225 -5.66313e-05
0.06625 0.63 0.01875 -0.00132756 0.0029235 -4.9064e-05
0.06875 0.63 0.01875 -0.00107544 0.000955386 -3.79109e-05
0.07125 0.63 0.01875 -0.000832884 -0.00125846 -2.54234e-05
0.07375 0.63 0.01875 -0.000589602 -0.00371108 -1.15738e-05
0.07625 0.63 0.01875 -0.000377104 -0.00624988 6.94925e-06
0.07875 0.63 0.01875 -0.000172732 -0.00893697 2.23417e-05
0.08125 0.63 0.01875 -1.37471e-05 -0.0118065 3.78977e-05
0.08375 0.63 0.01875 0.000161708 -0.0146397 5.37927e-05
0.08625 0.63 0.01875 0.00027322 -0.0175973 8.29233e-05
0.08875 0.63 0.01875 0.00043495 -0.0205386 9.3388e-05
0.09125 0.63 0.01875 0.000446448 -0.0224323 7.46011e-05
0.09375 0.63 0.01875 0.000436909 -0.0269268 7.29539e-05
0.09625 0.63 0.01875 0.000207352 -0.0298352 -2.3706e-05
0.09875 0.63 0.01875 -6.83791e-05 -0.0353259 -3.03529e-05
