# Region      : all 
# Cells       : 16000
# Volume      : 2.000000e-03
# Time        	volAverage(alpha.air)
0             	0.000000e+00
0.05          	5.238182e-04
0.1           	1.023818e-03
0.15          	1.523891e-03
0.2           	2.023891e-03
0.25          	2.541000e-03
0.3           	3.041000e-03
0.35          	3.541000e-03
0.4           	4.041000e-03
0.45          	4.541000e-03
0.5           	5.041000e-03
0.55          	5.541000e-03
0.6           	6.041001e-03
0.65          	6.541001e-03
0.7           	7.041001e-03
0.75          	7.541001e-03
0.8           	8.041001e-03
0.85          	8.541001e-03
0.9           	9.041013e-03
0.95          	9.541014e-03
1             	1.004101e-02
1.05          	1.054101e-02
1.1           	1.104101e-02
1.15          	1.154101e-02
1.2           	1.204101e-02
1.25          	1.254103e-02
1.3           	1.304109e-02
1.35          	1.354109e-02
1.4           	1.404109e-02
1.45          	1.454109e-02
1.5           	1.504109e-02
1.55          	1.554109e-02
1.6           	1.604110e-02
1.65          	1.654111e-02
1.7           	1.704111e-02
1.75          	1.754111e-02
1.8           	1.804111e-02
1.85          	1.854111e-02
1.9           	1.904111e-02
1.95          	1.954111e-02
2             	2.004111e-02
2.05          	2.054111e-02
2.1           	2.104111e-02
2.15          	2.154111e-02
2.2           	2.204111e-02
2.25          	2.254111e-02
2.3           	2.304111e-02
2.35          	2.354111e-02
2.4           	2.404112e-02
2.45          	2.454552e-02
2.5           	2.504552e-02
2.55          	2.554552e-02
2.6           	2.604552e-02
2.65          	2.654552e-02
2.7           	2.704552e-02
2.75          	2.754552e-02
2.8           	2.804565e-02
2.85          	2.854795e-02
2.9           	2.904797e-02
2.95          	2.954797e-02
3             	3.004852e-02
3.05          	3.054852e-02
3.1           	3.105336e-02
3.15          	3.155336e-02
3.2           	3.205336e-02
3.25          	3.255338e-02
3.3           	3.305338e-02
3.35          	3.355338e-02
3.4           	3.405363e-02
3.45          	3.455363e-02
3.5           	3.505377e-02
3.55          	3.555377e-02
3.6           	3.606431e-02
3.65          	3.656431e-02
3.7           	3.706432e-02
3.75          	3.756427e-02
3.8           	3.807026e-02
3.85          	3.856547e-02
3.9           	3.904921e-02
3.95          	3.950537e-02
4             	3.990572e-02
4.05          	4.021678e-02
4.1           	4.041706e-02
4.15          	4.049883e-02
4.2           	4.046634e-02
4.25          	4.034261e-02
4.3           	4.013287e-02
4.35          	3.986119e-02
4.4           	3.953935e-02
4.45          	3.918103e-02
4.5           	3.880974e-02
4.55          	3.845575e-02
4.6           	3.814168e-02
4.65          	3.787367e-02
4.7           	3.831258e-02
4.75          	3.819279e-02
4.8           	3.802599e-02
4.85          	3.788108e-02
4.9           	3.775488e-02
4.95          	3.764505e-02
5             	3.754967e-02
5.05          	3.747658e-02
5.1           	3.740652e-02
5.15          	3.734779e-02
5.2           	3.729965e-02
5.25          	3.726156e-02
5.3           	3.723187e-02
5.35          	3.721055e-02
5.4           	3.723852e-02
5.45          	3.722870e-02
5.5           	3.722424e-02
5.55          	3.722489e-02
5.6           	3.722900e-02
5.65          	3.723607e-02
5.7           	3.725943e-02
5.75          	3.728726e-02
5.8           	3.730103e-02
5.85          	3.731655e-02
5.9           	3.733363e-02
5.95          	3.735368e-02
6             	3.737322e-02
6.05          	3.739372e-02
6.1           	3.741541e-02
6.15          	3.743831e-02
6.2           	3.746253e-02
6.25          	3.748842e-02
6.3           	3.751696e-02
6.35          	3.754651e-02
6.4           	3.757782e-02
6.45          	3.761079e-02
6.5           	3.764544e-02
6.55          	3.768174e-02
6.6           	3.771963e-02
6.65          	3.775896e-02
6.7           	3.779952e-02
6.75          	3.784103e-02
6.8           	3.788317e-02
6.85          	3.792562e-02
6.9           	3.796803e-02
6.95          	3.801006e-02
7             	3.805145e-02
7.05          	3.809394e-02
7.1           	3.813366e-02
7.15          	3.817237e-02
7.2           	3.821027e-02
7.25          	3.824760e-02
7.3           	3.828465e-02
7.35          	3.832171e-02
7.4           	3.835908e-02
7.45          	3.839697e-02
7.5           	3.843555e-02
7.55          	3.850851e-02
7.6           	3.854872e-02
7.65          	3.858964e-02
7.7           	3.863111e-02
7.75          	3.867288e-02
7.8           	3.871457e-02
7.85          	3.875576e-02
7.9           	3.879596e-02
7.95          	3.883471e-02
8             	3.887169e-02
8.05          	3.890671e-02
8.1           	3.893966e-02
8.15          	3.897056e-02
8.2           	3.899946e-02
8.25          	3.902640e-02
8.3           	3.905131e-02
8.35          	3.907407e-02
8.4           	3.909448e-02
8.45          	3.911235e-02
8.5           	3.912755e-02
8.55          	3.914014e-02
8.6           	3.915026e-02
8.65          	3.915810e-02
8.7           	3.916389e-02
8.75          	3.916794e-02
8.8           	3.917057e-02
8.85          	3.917689e-02
8.9           	3.917762e-02
8.95          	3.917779e-02
9             	3.917833e-02
9.05          	3.917958e-02
9.1           	3.917887e-02
9.15          	3.917786e-02
9.2           	3.918393e-02
9.25          	3.918175e-02
9.3           	3.917869e-02
9.35          	3.917455e-02
9.4           	3.916913e-02
9.45          	3.916236e-02
9.5           	3.915601e-02
9.55          	3.914826e-02
9.6           	3.913695e-02
9.65          	3.912439e-02
9.7           	3.911086e-02
9.75          	3.911259e-02
9.8           	3.909856e-02
9.85          	3.908576e-02
9.9           	3.907531e-02
9.95          	3.907140e-02
10            	3.906693e-02
10.05         	3.906685e-02
10.1          	3.907172e-02
10.15         	3.908179e-02
10.2          	3.909707e-02
10.25         	3.911716e-02
10.3          	3.914146e-02
10.35         	3.916956e-02
10.4          	3.920105e-02
10.45         	3.923590e-02
10.5          	3.927730e-02
10.55         	3.931803e-02
10.6          	3.936116e-02
10.65         	3.940653e-02
10.7          	3.945394e-02
10.75         	3.951157e-02
10.8          	3.956177e-02
10.85         	3.961257e-02
10.9          	3.966323e-02
10.95         	3.971283e-02
11            	3.976016e-02
11.05         	3.980654e-02
11.1          	3.984570e-02
11.15         	3.987914e-02
11.2          	3.990579e-02
11.25         	3.992755e-02
11.3          	3.993836e-02
11.35         	3.994137e-02
11.4          	3.993723e-02
11.45         	3.992687e-02
11.5          	3.991145e-02
11.55         	3.989225e-02
11.6          	3.987594e-02
11.65         	3.985363e-02
11.7          	3.983187e-02
11.75         	3.981181e-02
11.8          	3.979430e-02
11.85         	3.977994e-02
11.9          	3.976900e-02
11.95         	3.976139e-02
12            	3.975708e-02
12.05         	3.975573e-02
12.1          	3.975717e-02
12.15         	3.976090e-02
12.2          	3.977031e-02
12.25         	3.977679e-02
12.3          	3.978377e-02
12.35         	3.979073e-02
12.4          	3.979764e-02
12.45         	3.980396e-02
12.5          	3.980955e-02
12.55         	3.981843e-02
12.6          	3.982454e-02
12.65         	3.983112e-02
12.7          	3.983803e-02
12.75         	3.984893e-02
12.8          	3.986260e-02
12.85         	3.987133e-02
12.9          	3.988158e-02
12.95         	3.989216e-02
13            	3.990227e-02
13.05         	3.991151e-02
13.1          	3.991837e-02
13.15         	3.992124e-02
13.2          	3.992144e-02
13.25         	3.991980e-02
13.3          	3.991804e-02
13.35         	3.991637e-02
13.4          	3.991461e-02
13.45         	3.991313e-02
13.5          	3.991151e-02
13.55         	3.991127e-02
13.6          	3.991329e-02
13.65         	3.991801e-02
13.7          	3.992465e-02
13.75         	3.993334e-02
13.8          	3.994863e-02
13.85         	3.996140e-02
13.9          	3.997582e-02
13.95         	3.999221e-02
14            	4.000909e-02
14.05         	4.002712e-02
14.1          	4.004620e-02
14.15         	4.006561e-02
14.2          	4.008537e-02
14.25         	4.010526e-02
14.3          	4.012840e-02
14.35         	4.014742e-02
14.4          	4.016592e-02
14.45         	4.018358e-02
14.5          	4.019996e-02
14.55         	4.022507e-02
14.6          	4.023515e-02
14.65         	4.024082e-02
14.7          	4.024187e-02
14.75         	4.024032e-02
14.8          	4.023180e-02
14.85         	4.021849e-02
14.9          	4.020071e-02
14.95         	4.017902e-02
15            	4.015407e-02
15.05         	4.012710e-02
15.1          	4.009906e-02
15.15         	4.007082e-02
15.2          	4.004429e-02
15.25         	4.001802e-02
15.3          	3.999371e-02
15.35         	3.997199e-02
15.4          	3.995314e-02
15.45         	3.993712e-02
15.5          	3.992388e-02
15.55         	3.991327e-02
15.6          	3.990503e-02
15.65         	3.989875e-02
15.7          	3.989390e-02
15.75         	3.988989e-02
15.8          	3.988645e-02
15.85         	3.988301e-02
15.9          	3.987897e-02
15.95         	3.987398e-02
16            	3.986781e-02
16.05         	3.986015e-02
16.1          	3.985088e-02
16.15         	3.983994e-02
16.2          	3.982747e-02
16.25         	3.981369e-02
16.3          	3.979892e-02
16.35         	3.978352e-02
16.4          	3.976791e-02
16.45         	3.975248e-02
16.5          	3.973757e-02
16.55         	3.972350e-02
16.6          	3.971100e-02
16.65         	3.970044e-02
16.7          	3.969204e-02
16.75         	3.968612e-02
16.8          	3.968549e-02
16.85         	3.968519e-02
16.9          	3.968780e-02
16.95         	3.969337e-02
17            	3.970185e-02
17.05         	3.971310e-02
17.1          	3.972665e-02
17.15         	3.974228e-02
17.2          	3.975968e-02
17.25         	3.977863e-02
17.3          	3.979894e-02
17.35         	3.982051e-02
17.4          	3.984313e-02
17.45         	3.986653e-02
17.5          	3.989023e-02
17.55         	3.991350e-02
17.6          	3.993550e-02
17.65         	3.995514e-02
17.7          	3.997155e-02
17.75         	3.998392e-02
17.8          	3.999179e-02
17.85         	3.999493e-02
17.9          	4.000052e-02
17.95         	3.999458e-02
18            	3.998470e-02
18.05         	3.997132e-02
18.1          	3.995489e-02
18.15         	3.993580e-02
18.2          	3.991563e-02
18.25         	3.989229e-02
18.3          	3.986732e-02
18.35         	3.984113e-02
18.4          	3.981418e-02
18.45         	3.978775e-02
18.5          	3.976062e-02
18.55         	3.973397e-02
18.6          	3.970817e-02
18.65         	3.968352e-02
18.7          	3.966033e-02
18.75         	3.963897e-02
18.8          	3.961983e-02
18.85         	3.960320e-02
18.9          	3.958924e-02
18.95         	3.957792e-02
19            	3.956922e-02
19.05         	3.956248e-02
19.1          	3.955759e-02
19.15         	3.955423e-02
19.2          	3.955277e-02
19.25         	3.955219e-02
19.3          	3.955344e-02
19.35         	3.955696e-02
19.4          	3.956549e-02
19.45         	3.957523e-02
19.5          	3.958898e-02
19.55         	3.960713e-02
19.6          	3.962987e-02
19.65         	3.965848e-02
19.7          	3.969001e-02
19.75         	3.973001e-02
19.8          	3.976825e-02
19.85         	3.980860e-02
19.9          	3.984996e-02
19.95         	3.989268e-02
20            	3.993274e-02
20.05         	3.997058e-02
20.1          	4.000545e-02
20.15         	4.003625e-02
20.2          	4.008162e-02
20.25         	4.010337e-02
20.3          	4.012033e-02
20.35         	4.013252e-02
20.4          	4.014001e-02
20.45         	4.014307e-02
20.5          	4.014210e-02
20.55         	4.013816e-02
20.6          	4.013088e-02
20.65         	4.012151e-02
20.7          	4.011074e-02
20.75         	4.009923e-02
20.8          	4.008736e-02
20.85         	4.007546e-02
20.9          	4.006708e-02
20.95         	4.005525e-02
21            	4.004322e-02
21.05         	4.003071e-02
21.1          	4.001724e-02
21.15         	4.002167e-02
21.2          	4.000550e-02
21.25         	3.998773e-02
21.3          	3.996800e-02
21.35         	3.994599e-02
21.4          	3.992175e-02
21.45         	3.989545e-02
21.5          	3.986786e-02
21.55         	3.983914e-02
21.6          	3.980970e-02
21.65         	3.978084e-02
21.7          	3.975398e-02
21.75         	3.972992e-02
21.8          	3.970892e-02
21.85         	3.969256e-02
21.9          	3.968039e-02
21.95         	3.967025e-02
22            	3.966669e-02
22.05         	3.966531e-02
22.1          	3.966866e-02
22.15         	3.967636e-02
22.2          	3.968654e-02
22.25         	3.970043e-02
22.3          	3.971876e-02
22.35         	3.974103e-02
22.4          	3.976407e-02
22.45         	3.978825e-02
22.5          	3.981482e-02
22.55         	3.984265e-02
22.6          	3.986714e-02
22.65         	3.988967e-02
22.7          	3.991019e-02
22.75         	3.992803e-02
22.8          	3.994769e-02
22.85         	3.995741e-02
22.9          	3.996358e-02
22.95         	3.996561e-02
23            	3.996226e-02
23.05         	3.995350e-02
23.1          	3.994142e-02
23.15         	3.992304e-02
23.2          	3.990119e-02
23.25         	3.987696e-02
23.3          	3.985461e-02
23.35         	3.983004e-02
23.4          	3.980729e-02
23.45         	3.978692e-02
23.5          	3.976971e-02
23.55         	3.975655e-02
23.6          	3.974825e-02
23.65         	3.974551e-02
23.7          	3.974584e-02
23.75         	3.974841e-02
23.8          	3.975234e-02
23.85         	3.975829e-02
23.9          	3.976397e-02
23.95         	3.977001e-02
24            	3.977734e-02
24.05         	3.980707e-02
24.1          	3.981758e-02
24.15         	3.982989e-02
24.2          	3.984411e-02
24.25         	3.986069e-02
24.3          	3.987986e-02
24.35         	3.990125e-02
24.4          	3.992471e-02
24.45         	3.995045e-02
24.5          	3.997793e-02
24.55         	4.000613e-02
24.6          	4.003379e-02
24.65         	4.006057e-02
24.7          	4.018465e-02
24.75         	4.020768e-02
24.8          	4.022783e-02
24.85         	4.024494e-02
24.9          	4.025893e-02
24.95         	4.026981e-02
25            	4.027864e-02
25.05         	4.028401e-02
25.1          	4.028656e-02
25.15         	4.028645e-02
25.2          	4.028383e-02
25.25         	4.027899e-02
25.3          	4.027202e-02
25.35         	4.026827e-02
25.4          	4.025841e-02
25.45         	4.024737e-02
25.5          	4.023510e-02
25.55         	4.022211e-02
25.6          	4.023447e-02
25.65         	4.022128e-02
25.7          	4.020826e-02
25.75         	4.019552e-02
25.8          	4.018330e-02
25.85         	4.017190e-02
25.9          	4.016149e-02
25.95         	4.015216e-02
26            	4.014393e-02
26.05         	4.013688e-02
26.1          	4.013091e-02
26.15         	4.012593e-02
26.2          	4.012198e-02
26.25         	4.011897e-02
26.3          	4.011939e-02
26.35         	4.011741e-02
26.4          	4.011520e-02
26.45         	4.011232e-02
26.5          	4.010847e-02
26.55         	4.010356e-02
26.6          	4.009748e-02
26.65         	4.009030e-02
26.7          	4.008229e-02
26.75         	4.007383e-02
26.8          	4.006504e-02
26.85         	4.005698e-02
26.9          	4.004831e-02
26.95         	4.004841e-02
27            	4.004102e-02
27.05         	4.003483e-02
27.1          	4.003025e-02
27.15         	4.002786e-02
27.2          	4.002843e-02
27.25         	4.003295e-02
27.3          	4.004243e-02
27.35         	4.005753e-02
27.4          	4.007838e-02
27.45         	4.010452e-02
27.5          	4.013499e-02
27.55         	4.016858e-02
27.6          	4.020409e-02
27.65         	4.024025e-02
27.7          	4.027594e-02
27.75         	4.031032e-02
27.8          	4.034284e-02
27.85         	4.037331e-02
27.9          	4.040176e-02
27.95         	4.042837e-02
28            	4.045343e-02
28.05         	4.047728e-02
28.1          	4.050029e-02
28.15         	4.052843e-02
28.2          	4.055050e-02
28.25         	4.057147e-02
28.3          	4.059177e-02
28.35         	4.061110e-02
28.4          	4.062872e-02
28.45         	4.064416e-02
28.5          	4.065661e-02
28.55         	4.066542e-02
28.6          	4.066989e-02
28.65         	4.066940e-02
28.7          	4.066357e-02
28.75         	4.065229e-02
28.8          	4.063584e-02
28.85         	4.061474e-02
28.9          	4.058921e-02
28.95         	4.056004e-02
29            	4.053023e-02
29.05         	4.049590e-02
29.1          	4.046006e-02
29.15         	4.042317e-02
29.2          	4.038614e-02
29.25         	4.034868e-02
29.3          	4.031170e-02
29.35         	4.027552e-02
29.4          	4.024038e-02
29.45         	4.020665e-02
29.5          	4.017457e-02
29.55         	4.014424e-02
29.6          	4.011576e-02
29.65         	4.008937e-02
29.7          	4.006515e-02
29.75         	4.004295e-02
29.8          	4.002923e-02
29.85         	4.001120e-02
29.9          	3.999267e-02
29.95         	3.997422e-02
30            	3.995554e-02
30.05         	3.993505e-02
30.1          	3.991222e-02
30.15         	3.988630e-02
30.2          	3.985694e-02
30.25         	3.982450e-02
30.3          	3.978827e-02
30.35         	3.974947e-02
30.4          	3.970890e-02
30.45         	3.967161e-02
30.5          	3.962988e-02
30.55         	3.958874e-02
30.6          	3.954906e-02
30.65         	3.951178e-02
30.7          	3.947783e-02
30.75         	3.944834e-02
30.8          	3.942482e-02
30.85         	3.940672e-02
30.9          	3.939506e-02
30.95         	3.939004e-02
31            	3.939155e-02
31.05         	3.939908e-02
31.1          	3.941190e-02
31.15         	3.943945e-02
31.2          	3.946047e-02
31.25         	3.948423e-02
31.3          	3.950981e-02
31.35         	3.953630e-02
31.4          	3.956281e-02
31.45         	3.958848e-02
31.5          	3.961247e-02
31.55         	3.963481e-02
31.6          	3.965319e-02
31.65         	3.966779e-02
31.7          	3.967814e-02
31.75         	3.968399e-02
31.8          	3.968542e-02
31.85         	3.968247e-02
31.9          	3.967554e-02
31.95         	3.966505e-02
32            	3.965286e-02
32.05         	3.963670e-02
32.1          	3.961843e-02
32.15         	3.959852e-02
32.2          	3.957741e-02
32.25         	3.955546e-02
32.3          	3.953296e-02
32.35         	3.951011e-02
32.4          	3.949080e-02
32.45         	3.946852e-02
32.5          	3.944689e-02
32.55         	3.942608e-02
32.6          	3.940600e-02
32.65         	3.938712e-02
32.7          	3.937285e-02
32.75         	3.935791e-02
32.8          	3.934447e-02
32.85         	3.933191e-02
32.9          	3.932007e-02
32.95         	3.931018e-02
33            	3.930526e-02
33.05         	3.929909e-02
33.1          	3.929360e-02
33.15         	3.929099e-02
33.2          	3.929243e-02
33.25         	3.929586e-02
33.3          	3.929971e-02
33.35         	3.930514e-02
33.4          	3.931305e-02
33.45         	3.932353e-02
33.5          	3.933446e-02
33.55         	3.934692e-02
33.6          	3.936087e-02
33.65         	3.937611e-02
33.7          	3.939283e-02
33.75         	3.941041e-02
33.8          	3.942778e-02
33.85         	3.944423e-02
33.9          	3.946184e-02
33.95         	3.947466e-02
34            	3.948512e-02
34.05         	3.949282e-02
34.1          	3.949773e-02
34.15         	3.950414e-02
34.2          	3.950417e-02
34.25         	3.950256e-02
34.3          	3.950011e-02
34.35         	3.949763e-02
34.4          	3.949629e-02
34.45         	3.949637e-02
34.5          	3.949917e-02
34.55         	3.950469e-02
34.6          	3.951373e-02
34.65         	3.952627e-02
34.7          	3.954236e-02
34.75         	3.956215e-02
34.8          	3.958556e-02
34.85         	3.961240e-02
34.9          	3.964214e-02
34.95         	3.967396e-02
35            	3.972074e-02
35.05         	3.975327e-02
35.1          	3.978443e-02
35.15         	3.981323e-02
35.2          	3.983872e-02
35.25         	3.986008e-02
35.3          	3.989172e-02
35.35         	3.990322e-02
35.4          	3.990911e-02
35.45         	3.990906e-02
35.5          	3.990280e-02
35.55         	3.989013e-02
35.6          	3.987108e-02
35.65         	3.984584e-02
35.7          	3.982839e-02
35.75         	3.979244e-02
35.8          	3.975248e-02
35.85         	3.970967e-02
35.9          	3.966535e-02
35.95         	3.962081e-02
36            	3.957735e-02
36.05         	3.953616e-02
36.1          	3.949831e-02
36.15         	3.946467e-02
36.2          	3.943616e-02
36.25         	3.941277e-02
36.3          	3.939502e-02
36.35         	3.938286e-02
36.4          	3.937611e-02
36.45         	3.937461e-02
36.5          	3.937795e-02
36.55         	3.938549e-02
36.6          	3.939655e-02
36.65         	3.941107e-02
36.7          	3.943384e-02
36.75         	3.945445e-02
36.8          	3.947761e-02
36.85         	3.950273e-02
36.9          	3.952966e-02
36.95         	3.955827e-02
37            	3.958795e-02
37.05         	3.961826e-02
37.1          	3.964861e-02
37.15         	3.967844e-02
37.2          	3.970699e-02
37.25         	3.973385e-02
37.3          	3.976325e-02
37.35         	3.978513e-02
37.4          	3.981625e-02
37.45         	3.983166e-02
37.5          	3.984401e-02
37.55         	3.985374e-02
37.6          	3.986121e-02
37.65         	3.986667e-02
37.7          	3.987280e-02
37.75         	3.987492e-02
37.8          	3.987559e-02
37.85         	3.987481e-02
37.9          	3.987241e-02
37.95         	3.986813e-02
38            	3.986187e-02
38.05         	3.985365e-02
38.1          	3.984357e-02
38.15         	3.983166e-02
38.2          	3.981834e-02
38.25         	3.980401e-02
38.3          	3.978881e-02
38.35         	3.977329e-02
38.4          	3.975812e-02
38.45         	3.974979e-02
38.5          	3.973601e-02
38.55         	3.972240e-02
38.6          	3.970810e-02
38.65         	3.969186e-02
38.7          	3.967248e-02
38.75         	3.964876e-02
38.8          	3.961971e-02
38.85         	3.958481e-02
38.9          	3.954426e-02
38.95         	3.949883e-02
39            	3.944975e-02
39.05         	3.945073e-02
39.1          	3.939937e-02
39.15         	3.934975e-02
39.2          	3.930364e-02
39.25         	3.926232e-02
39.3          	3.922668e-02
39.35         	3.919726e-02
39.4          	3.917460e-02
39.45         	3.915885e-02
39.5          	3.914967e-02
39.55         	3.914678e-02
39.6          	3.915019e-02
39.65         	3.915982e-02
39.7          	3.917556e-02
39.75         	3.919734e-02
39.8          	3.922580e-02
39.85         	3.925806e-02
39.9          	3.929514e-02
39.95         	3.933640e-02
40            	3.938112e-02
40.05         	3.943079e-02
40.1          	3.948152e-02
40.15         	3.953439e-02
40.2          	3.958862e-02
40.25         	3.964345e-02
40.3          	3.969814e-02
40.35         	3.975239e-02
40.4          	3.980595e-02
40.45         	3.985829e-02
40.5          	3.990882e-02
40.55         	3.996072e-02
40.6          	4.000674e-02
40.65         	4.005034e-02
40.7          	4.009195e-02
40.75         	4.013042e-02
40.8          	4.016615e-02
40.85         	4.019896e-02
40.9          	4.022868e-02
40.95         	4.025503e-02
41            	4.027787e-02
41.05         	4.029706e-02
41.1          	4.031836e-02
41.15         	4.033187e-02
41.2          	4.033938e-02
41.25         	4.034289e-02
41.3          	4.034480e-02
41.35         	4.034027e-02
41.4          	4.033175e-02
41.45         	4.031929e-02
41.5          	4.030306e-02
41.55         	4.028319e-02
41.6          	4.025994e-02
41.65         	4.023344e-02
41.7          	4.021493e-02
41.75         	4.018291e-02
41.8          	4.014905e-02
41.85         	4.011415e-02
41.9          	4.008198e-02
41.95         	4.004743e-02
42            	4.001339e-02
42.05         	4.019000e-02
42.1          	4.016038e-02
42.15         	4.013369e-02
42.2          	4.010929e-02
42.25         	4.008804e-02
42.3          	4.006969e-02
42.35         	4.005220e-02
42.4          	4.003632e-02
42.45         	4.002214e-02
42.5          	4.000763e-02
42.55         	3.999375e-02
42.6          	3.998023e-02
42.65         	3.996636e-02
42.7          	3.995318e-02
42.75         	3.994275e-02
42.8          	3.993365e-02
42.85         	3.992439e-02
42.9          	3.991711e-02
42.95         	3.991219e-02
43            	3.990727e-02
43.05         	3.990212e-02
43.1          	3.989718e-02
43.15         	3.989186e-02
43.2          	3.988485e-02
43.25         	3.987732e-02
43.3          	3.986927e-02
43.35         	3.986169e-02
43.4          	4.013305e-02
43.45         	4.012610e-02
43.5          	4.011906e-02
43.55         	4.011220e-02
43.6          	4.010692e-02
43.65         	4.010425e-02
43.7          	4.010481e-02
43.75         	4.010730e-02
43.8          	4.011252e-02
43.85         	4.012030e-02
43.9          	4.013027e-02
43.95         	4.014196e-02
44            	4.015512e-02
44.05         	4.016961e-02
44.1          	4.018539e-02
44.15         	4.020244e-02
44.2          	4.022089e-02
44.25         	4.024069e-02
44.3          	4.026181e-02
44.35         	4.028430e-02
44.4          	4.030830e-02
44.45         	4.033391e-02
44.5          	4.036117e-02
44.55         	4.039363e-02
44.6          	4.042256e-02
44.65         	4.045155e-02
44.7          	4.047993e-02
44.75         	4.050727e-02
44.8          	4.056385e-02
44.85         	4.058704e-02
44.9          	4.060689e-02
44.95         	4.062255e-02
45            	4.063331e-02
45.05         	4.063850e-02
45.1          	4.063764e-02
45.15         	4.063079e-02
45.2          	4.061754e-02
45.25         	4.059824e-02
45.3          	4.057367e-02
45.35         	4.054696e-02
45.4          	4.051337e-02
45.45         	4.047635e-02
45.5          	4.043644e-02
45.55         	4.039438e-02
45.6          	4.035124e-02
45.65         	4.030783e-02
45.7          	4.026486e-02
45.75         	4.022306e-02
45.8          	4.018299e-02
45.85         	4.014512e-02
45.9          	4.010986e-02
45.95         	4.007742e-02
46            	4.004780e-02
46.05         	4.002097e-02
46.1          	3.999700e-02
46.15         	3.997607e-02
46.2          	3.995857e-02
46.25         	3.994493e-02
46.3          	3.993551e-02
46.35         	3.993022e-02
46.4          	3.992883e-02
46.45         	3.993138e-02
46.5          	3.994332e-02
46.55         	3.995254e-02
46.6          	3.996449e-02
46.65         	3.998038e-02
46.7          	3.999718e-02
46.75         	4.001610e-02
46.8          	4.004103e-02
46.85         	4.006367e-02
46.9          	4.008774e-02
46.95         	4.011276e-02
47            	4.013897e-02
47.05         	4.016379e-02
47.1          	4.018733e-02
47.15         	4.020892e-02
47.2          	4.022813e-02
47.25         	4.024470e-02
47.3          	4.025863e-02
47.35         	4.027014e-02
47.4          	4.027957e-02
47.45         	4.028725e-02
47.5          	4.029359e-02
47.55         	4.029888e-02
47.6          	4.030420e-02
47.65         	4.030798e-02
47.7          	4.031131e-02
47.75         	4.031425e-02
47.8          	4.031669e-02
47.85         	4.031870e-02
47.9          	4.032041e-02
47.95         	4.032195e-02
48            	4.032326e-02
48.05         	4.033220e-02
48.1          	4.033222e-02
48.15         	4.033081e-02
48.2          	4.032741e-02
48.25         	4.032135e-02
48.3          	4.031202e-02
48.35         	4.029880e-02
48.4          	4.028133e-02
48.45         	4.025946e-02
48.5          	4.023313e-02
48.55         	4.020250e-02
48.6          	4.016811e-02
48.65         	4.013061e-02
48.7          	4.009053e-02
48.75         	4.004809e-02
48.8          	4.001820e-02
48.85         	3.997398e-02
48.9          	3.992977e-02
48.95         	3.988582e-02
49            	3.984275e-02
49.05         	3.980134e-02
49.1          	3.977955e-02
49.15         	3.974409e-02
49.2          	3.971235e-02
49.25         	3.968491e-02
49.3          	3.966555e-02
49.35         	3.964770e-02
49.4          	3.963547e-02
49.45         	3.963105e-02
49.5          	3.963031e-02
49.55         	3.963507e-02
49.6          	3.964496e-02
49.65         	3.965939e-02
49.7          	3.967764e-02
49.75         	3.969930e-02
49.8          	3.972408e-02
49.85         	3.975148e-02
49.9          	3.981806e-02
49.95         	3.985015e-02
50            	3.988384e-02
50.05         	3.991824e-02
50.1          	3.995242e-02
50.15         	3.998573e-02
50.2          	4.001644e-02
50.25         	4.004402e-02
50.3          	4.006770e-02
50.35         	4.008806e-02
50.4          	4.010201e-02
50.45         	4.011013e-02
50.5          	4.011212e-02
50.55         	4.010801e-02
50.6          	4.009790e-02
50.65         	4.008216e-02
50.7          	4.006101e-02
50.75         	4.003514e-02
50.8          	4.000558e-02
50.85         	3.997330e-02
50.9          	3.993918e-02
50.95         	3.990412e-02
51            	3.986939e-02
51.05         	3.983634e-02
51.1          	3.980606e-02
51.15         	3.977922e-02
51.2          	3.976878e-02
51.25         	3.975015e-02
51.3          	3.973576e-02
51.35         	3.972567e-02
51.4          	3.971939e-02
51.45         	3.971582e-02
51.5          	3.971369e-02
51.55         	3.971229e-02
51.6          	3.971139e-02
51.65         	3.971096e-02
51.7          	3.971057e-02
51.75         	3.971126e-02
51.8          	3.971190e-02
51.85         	3.971277e-02
51.9          	3.971608e-02
51.95         	3.972210e-02
52            	3.972935e-02
52.05         	3.973781e-02
52.1          	3.974658e-02
52.15         	3.975538e-02
52.2          	3.976435e-02
52.25         	3.977401e-02
52.3          	3.978478e-02
52.35         	3.979704e-02
52.4          	3.981091e-02
52.45         	3.982644e-02
52.5          	3.984385e-02
52.55         	3.986324e-02
52.6          	3.988457e-02
52.65         	3.990765e-02
52.7          	3.993581e-02
52.75         	3.996108e-02
52.8          	3.998668e-02
52.85         	4.001204e-02
52.9          	4.003654e-02
52.95         	4.005983e-02
53            	4.008152e-02
53.05         	4.010142e-02
53.1          	4.011964e-02
53.15         	4.015063e-02
53.2          	4.016571e-02
53.25         	4.017918e-02
53.3          	4.019093e-02